# vtk DataFile Version 2.0
vtk title
ASCII
DATASET UNSTRUCTURED_GRID

POINTS 8456 float
0.004350 0.004037 0.000000
0.004281 0.004163 0.000000
0.004354 0.003766 0.000000
0.004293 0.003894 0.000000
0.004322 0.004309 0.000000
0.004155 0.004245 0.000000
0.004493 0.004053 0.000000
0.004406 0.004481 0.000000
0.004445 0.004186 0.000000
0.004472 0.004331 0.000000
0.004290 0.003626 0.000000
0.004459 0.003911 0.000000
0.004505 0.003782 0.000000
0.004459 0.003637 0.000000
0.004129 0.004013 0.000000
0.004161 0.003752 0.000000
0.003848 0.004237 0.000000
0.003459 0.004472 0.000000
0.004126 0.003483 0.000000
0.004161 0.003209 0.000000
0.002763 0.004844 0.000000
0.004462 0.004641 0.000000
0.004125 0.004475 0.000000
0.004329 0.004647 0.000000
0.003878 0.004628 0.000000
0.003185 0.004824 0.000000
0.003628 0.004884 0.000000
0.004587 0.004712 0.000000
0.004586 0.004566 0.000000
0.004608 0.003991 0.000000
0.004602 0.004134 0.000000
0.004588 0.004419 0.000000
0.004595 0.004274 0.000000
0.004351 0.003491 0.000000
0.004292 0.003351 0.000000
0.004503 0.003504 0.000000
0.004360 0.003214 0.000000
0.004293 0.003074 0.000000
0.004608 0.003856 0.000000
0.004604 0.003709 0.000000
0.004607 0.003578 0.000000
0.003823 0.003751 0.000000
0.003375 0.004014 0.000000
0.002898 0.004364 0.000000
0.002400 0.004633 0.000000
0.001903 0.004861 0.000000
0.003821 0.003203 0.000000
0.004122 0.002931 0.000000
0.004163 0.002651 0.000000
0.000000 0.005923 0.000000
0.001422 0.005099 0.000000
0.000959 0.005367 0.000000
0.000487 0.005644 0.000000
0.001857 0.005386 0.000000
0.002400 0.005200 0.000000
0.002934 0.005200 0.000000
0.004411 0.004799 0.000000
0.004174 0.004765 0.000000
0.003999 0.004947 0.000000
0.003431 0.005200 0.000000
0.003842 0.005200 0.000000
0.004490 0.004943 0.000000
0.004597 0.004855 0.000000
0.004735 0.004780 0.000000
0.004735 0.004640 0.000000
0.004735 0.004500 0.000000
0.004735 0.003940 0.000000
0.004735 0.004080 0.000000
0.004735 0.004220 0.000000
0.004735 0.004360 0.000000
0.004461 0.003360 0.000000
0.004605 0.003435 0.000000
0.004504 0.003225 0.000000
0.004358 0.002936 0.000000
0.004294 0.002796 0.000000
0.004463 0.003082 0.000000
0.004735 0.003800 0.000000
0.004735 0.003660 0.000000
0.004735 0.003520 0.000000
0.004366 0.002656 0.000000
0.004297 0.002513 0.000000
0.004361 0.002371 0.000000
0.004298 0.002230 0.000000
0.004371 0.002092 0.000000
0.003349 0.003481 0.000000
0.003347 0.002924 0.000000
0.002875 0.003781 0.000000
0.002400 0.004067 0.000000
0.001913 0.004303 0.000000
0.001428 0.004543 0.000000
0.000950 0.004794 0.000000
0.000475 0.005056 0.000000
0.000000 0.005331 0.000000
0.004361 0.001809 0.000000
0.004296 0.001950 0.000000
0.004131 0.002367 0.000000
0.003819 0.002645 0.000000
0.004160 0.002081 0.000000
0.004296 0.001668 0.000000
0.004366 0.001531 0.000000
0.000476 0.006215 0.000000
0.000000 0.006515 0.000000
0.001434 0.005621 0.000000
0.001014 0.005971 0.000000
0.001803 0.005783 0.000000
0.002187 0.005708 0.000000
0.002670 0.005619 0.000000
0.003178 0.005558 0.000000
0.000000 0.007108 0.000000
0.004310 0.005000 0.000000
0.004494 0.005076 0.000000
0.004162 0.005200 0.000000
0.003614 0.005500 0.000000
0.003981 0.005464 0.000000
0.004616 0.004992 0.000000
0.004735 0.004920 0.000000
0.004835 0.003929 0.000000
0.004835 0.004748 0.000000
0.004835 0.004884 0.000000
0.004835 0.004611 0.000000
0.004835 0.004475 0.000000
0.004835 0.004065 0.000000
0.004835 0.004202 0.000000
0.004835 0.004338 0.000000
0.004610 0.003302 0.000000
0.004735 0.003380 0.000000
0.004607 0.003156 0.000000
0.004507 0.002947 0.000000
0.004462 0.002806 0.000000
0.004612 0.003024 0.000000
0.004507 0.002665 0.000000
0.004835 0.003792 0.000000
0.004835 0.003656 0.000000
0.004835 0.003519 0.000000
0.004835 0.003383 0.000000
0.004465 0.002519 0.000000
0.004507 0.002382 0.000000
0.004466 0.002238 0.000000
0.004508 0.002104 0.000000
0.004459 0.001965 0.000000
0.004506 0.001823 0.000000
0.004465 0.001678 0.000000
0.004510 0.001543 0.000000
0.004461 0.001407 0.000000
0.004509 0.001263 0.000000
0.004467 0.001117 0.000000
0.004510 0.000984 0.000000
0.003346 0.002360 0.000000
0.002872 0.003211 0.000000
0.002873 0.002644 0.000000
0.002400 0.003500 0.000000
0.001916 0.003732 0.000000
0.001433 0.003970 0.000000
0.000952 0.004217 0.000000
0.000475 0.004473 0.000000
0.000000 0.004738 0.000000
0.004129 0.001804 0.000000
0.003822 0.002081 0.000000
0.004161 0.001519 0.000000
0.004362 0.001248 0.000000
0.004296 0.001389 0.000000
0.004298 0.001107 0.000000
0.004509 0.000703 0.000000
0.004467 0.000838 0.000000
0.004367 0.000970 0.000000
0.004466 0.000558 0.000000
0.004505 0.000421 0.000000
0.000880 0.006453 0.000000
0.000504 0.006814 0.000000
0.000381 0.007322 0.000000
0.001563 0.006062 0.000000
0.001320 0.006444 0.000000
0.001992 0.006092 0.000000
0.002479 0.006006 0.000000
0.002950 0.005972 0.000000
0.003423 0.005901 0.000000
0.000000 0.007700 0.000000
0.004400 0.005200 0.000000
0.004639 0.005101 0.000000
0.004587 0.005200 0.000000
0.004269 0.005414 0.000000
0.003844 0.005795 0.000000
0.004153 0.005676 0.000000
0.003775 0.006250 0.000000
0.003983 0.006574 0.000000
0.004735 0.005060 0.000000
0.004835 0.005021 0.000000
0.004958 0.004956 0.000000
0.004962 0.003879 0.000000
0.004960 0.004010 0.000000
0.004956 0.004691 0.000000
0.004954 0.004816 0.000000
0.004961 0.004423 0.000000
0.004954 0.004550 0.000000
0.004960 0.004152 0.000000
0.004959 0.004283 0.000000
0.004735 0.003240 0.000000
0.004835 0.003246 0.000000
0.004735 0.003100 0.000000
0.004609 0.002874 0.000000
0.004613 0.002742 0.000000
0.004735 0.002960 0.000000
0.004609 0.002592 0.000000
0.004964 0.003736 0.000000
0.005072 0.003813 0.000000
0.004966 0.003605 0.000000
0.004952 0.003459 0.000000
0.004949 0.003323 0.000000
0.004610 0.002458 0.000000
0.004607 0.002314 0.000000
0.004610 0.002178 0.000000
0.004606 0.002031 0.000000
0.004608 0.001899 0.000000
0.004607 0.001753 0.000000
0.004610 0.001617 0.000000
0.004608 0.001470 0.000000
0.004610 0.001339 0.000000
0.004611 0.001192 0.000000
0.004611 0.001058 0.000000
0.004609 0.000914 0.000000
0.004610 0.000779 0.000000
0.004609 0.000634 0.000000
0.004610 0.000498 0.000000
0.004609 0.000354 0.000000
0.004611 0.000221 0.000000
0.004608 0.000071 0.000000
0.003345 0.001793 0.000000
0.002871 0.002072 0.000000
0.002400 0.002933 0.000000
0.002400 0.002367 0.000000
0.001919 0.003162 0.000000
0.001434 0.003392 0.000000
0.000952 0.003632 0.000000
0.000476 0.003886 0.000000
0.000000 0.004146 0.000000
0.003822 0.001517 0.000000
0.004130 0.001241 0.000000
0.004165 0.000959 0.000000
0.004364 0.000689 0.000000
0.004299 0.000827 0.000000
0.004299 0.000547 0.000000
0.004508 0.000146 0.000000
0.004464 0.000280 0.000000
0.004365 0.000413 0.000000
0.004506 -0.000135 0.000000
0.004459 0.000005 0.000000
0.001074 0.006857 0.000000
0.000530 0.007700 0.000000
0.000813 0.007277 0.000000
0.001593 0.006871 0.000000
0.001817 0.006462 0.000000
0.002304 0.006448 0.000000
0.002725 0.006317 0.000000
0.003224 0.006435 0.000000
0.003658 0.006686 0.000000
0.003987 0.006886 0.000000
0.000387 0.008085 0.000000
0.000000 0.008298 0.000000
0.004735 0.007700 0.000000
0.004661 0.007606 0.000000
0.004759 0.007623 0.000000
0.004499 0.005366 0.000000
0.004735 0.005200 0.000000
0.004663 0.005321 0.000000
0.004483 0.007241 0.000000
0.004338 0.007037 0.000000
0.004421 0.005580 0.000000
0.004138 0.005990 0.000000
0.004355 0.005799 0.000000
0.004274 0.006686 0.000000
0.004193 0.006333 0.000000
0.004835 0.005176 0.000000
0.004981 0.005098 0.000000
0.005054 0.004888 0.000000
0.005092 0.005001 0.000000
0.005061 0.004084 0.000000
0.005107 0.003951 0.000000
0.005054 0.004624 0.000000
0.005093 0.004757 0.000000
0.005061 0.004358 0.000000
0.005098 0.004494 0.000000
0.005104 0.004227 0.000000
0.004835 0.003110 0.000000
0.004948 0.003187 0.000000
0.004835 0.002973 0.000000
0.004735 0.002680 0.000000
0.004735 0.002820 0.000000
0.004835 0.002837 0.000000
0.004735 0.002540 0.000000
0.005209 0.003826 0.000000
0.005116 0.003672 0.000000
0.005062 0.003528 0.000000
0.005274 0.003697 0.000000
0.005079 0.003388 0.000000
0.005042 0.003260 0.000000
0.004735 0.002400 0.000000
0.004735 0.002260 0.000000
0.004735 0.002120 0.000000
0.004735 0.001980 0.000000
0.004735 0.001840 0.000000
0.004735 0.001700 0.000000
0.004735 0.001560 0.000000
0.004735 0.001420 0.000000
0.004735 0.001280 0.000000
0.004735 0.001140 0.000000
0.004735 0.001000 0.000000
0.004735 0.000860 0.000000
0.004735 0.000720 0.000000
0.004735 0.000580 0.000000
0.004735 0.000440 0.000000
0.004735 0.000300 0.000000
0.004609 -0.000061 0.000000
0.004607 -0.000209 0.000000
0.004735 0.000160 0.000000
0.004735 0.000020 0.000000
0.004611 -0.000339 0.000000
0.004609 -0.000489 0.000000
0.003343 0.001225 0.000000
0.002869 0.001501 0.000000
0.002400 0.001800 0.000000
0.001926 0.002597 0.000000
0.001953 0.002051 0.000000
0.001435 0.002814 0.000000
0.000951 0.003043 0.000000
0.000477 0.003294 0.000000
0.000000 0.003554 0.000000
0.004508 -0.000415 0.000000
0.004458 -0.000276 0.000000
0.003821 0.000955 0.000000
0.004133 0.000683 0.000000
0.004162 0.000399 0.000000
0.004355 0.000135 0.000000
0.004295 0.000271 0.000000
0.004366 -0.000146 0.000000
0.004293 -0.000006 0.000000
0.004509 -0.000700 0.000000
0.004463 -0.000566 0.000000
0.004512 -0.000977 0.000000
0.004471 -0.000845 0.000000
0.000000 0.008896 0.000000
0.004569 0.007492 0.000000
0.004484 0.007389 0.000000
0.004658 0.007779 0.000000
0.004622 0.007700 0.000000
0.004548 0.007605 0.000000
0.000824 0.008129 0.000000
0.001332 0.007282 0.000000
0.001060 0.007700 0.000000
0.001867 0.007292 0.000000
0.002148 0.006887 0.000000
0.004300 0.007323 0.000000
0.002729 0.006800 0.000000
0.003289 0.006946 0.000000
0.003714 0.007087 0.000000
0.004054 0.007207 0.000000
0.000501 0.008605 0.000000
0.004735 0.007808 0.000000
0.004835 0.007700 0.000000
0.004825 0.007772 0.000000
0.004732 0.007519 0.000000
0.004835 0.007589 0.000000
0.004912 0.007634 0.000000
0.004670 0.007345 0.000000
0.004654 0.005485 0.000000
0.004835 0.005363 0.000000
0.004620 0.007098 0.000000
[...]
POINT_DATA 8456
SCALARS A double 1
LOOKUP_TABLE Atable
0.001737
0.001648
0.001781
0.001726
0.001631
0.001569
0.001828
0.001627
0.001763
0.001731
0.001763
0.001845
0.001907
0.001912
0.001633
0.001727
0.001304
0.001053
0.001792
0.001833
0.000483
0.001593
0.001465
0.001508
0.001230
0.000744
0.001001
0.001639
0.001709
0.001918
0.001873
0.001771
0.001825
0.001845
0.001801
0.001953
0.001846
0.001812
0.001949
0.001975
0.002003
0.001325
0.001140
0.000539
0.000145
0.000176
0.001334
0.001865
0.001846
0.000000
0.000155
0.000113
0.000055
0.000251
0.000325
0.000585
0.001471
0.001358
0.001150
0.000767
0.000912
0.001428
0.001562
0.001710
0.001777
0.001835
0.002014
0.001976
0.001934
0.001887
0.001956
0.002026
0.001992
0.001890
0.001815
0.001987
0.002048
0.002078
0.002104
0.001849
0.001802
0.001856
0.001773
0.001797
0.001248
0.001297
0.000501
0.000077
0.000102
0.000104
0.000083
0.000044
0.000000
0.001781
0.001735
0.001826
0.001321
0.001767
0.001702
0.001728
0.000061
0.000000
0.000199
0.000140
0.000280
0.000363
0.000499
0.000678
0.000000
0.001276
0.001317
0.001033
0.000829
0.000958
0.001478
0.001631
0.001977
0.001693
0.001623
0.001754
0.001809
0.001941
0.001901
0.001857
0.002040
0.002126
0.002050
0.002006
0.001990
0.002065
0.001999
0.002009
0.002037
0.002062
0.002083
0.001971
0.001967
0.001933
0.001932
0.001891
0.001891
0.001853
0.001857
0.001814
0.001818
0.001778
0.001783
0.001275
0.000478
0.000462
0.000046
0.000059
0.000064
0.000055
0.000031
0.000000
0.001724
0.001293
0.001675
0.001705
0.001665
0.001634
0.001747
0.001741
0.001664
0.001705
0.001711
0.000127
0.000060
0.000045
0.000244
0.000203
0.000338
0.000462
0.000605
0.000757
0.000000
0.001136
0.001397
0.001238
0.001070
0.000898
0.001008
0.000855
0.000904
0.001531
0.001539
0.001561
0.001942
0.001911
0.001686
0.001631
0.001787
0.001743
0.001872
0.001833
0.002143
0.002100
0.002156
0.002067
0.002058
0.002163
0.002042
0.001973
0.001921
0.001997
0.002027
0.002047
0.002033
0.002012
0.001990
0.001968
0.001957
0.001937
0.001917
0.001897
0.001885
0.001867
0.001848
0.001829
0.001815
0.001797
0.001782
0.001764
0.001751
0.001733
0.001189
0.000450
0.000030
0.000020
0.000035
0.000038
0.000034
0.000020
0.000000
0.001251
0.001623
0.001589
0.001638
0.001601
0.001573
0.001681
0.001670
0.001606
0.001649
0.001636
0.000152
0.000053
0.000103
0.000245
0.000302
0.000419
0.000537
0.000683
0.000806
0.000895
0.000034
0.000000
0.001151
0.001097
0.001133
0.001174
0.001373
0.001268
0.001025
0.000987
0.001113
0.000980
0.001066
0.000978
0.000974
0.001424
0.001484
0.001581
0.001527
0.001859
0.001879
0.001690
0.001630
0.001780
0.001726
0.001808
0.002112
0.002062
0.002120
0.002155
0.002163
0.002121
0.002135
0.001878
0.001936
0.001978
0.001887
0.001994
0.002022
0.002115
0.002096
0.002076
0.002057
0.002038
0.002020
0.002001
0.001983
0.001964
0.001946
0.001928
0.001911
0.001893
0.001875
0.001858
0.001841
0.001719
0.001702
0.001823
0.001806
0.001690
0.001673
0.001078
0.000438
0.000013
0.000022
0.000014
0.000023
0.000020
0.000012
0.000000
0.001623
0.001608
0.001212
0.001533
0.001506
0.001578
0.001545
0.001564
0.001524
0.001595
0.001583
0.001568
0.001560
0.000000
0.001058
0.001030
0.001152
0.001088
0.001058
0.000072
0.000179
0.000118
0.000270
0.000362
0.000978
0.000521
0.000685
0.000812
0.000909
0.000029
0.001217
0.001168
0.001192
0.001106
0.001141
0.001160
0.001075
0.001218
0.001324
0.001055
0.001051
0.001150
0.001079
0.001054
0.001401
0.001461
0.001565
0.001512
0.001815
0.001832
0.001658
0.001602
0.001740
0.001687
0.001763
0.002070
0.002022
0.002094
0.002079
0.002115
0.002087
0.002074
0.001827
0.001929
0.001867
0.001968
0.002055
0.002036
0.002018
0.001999
0.001981
0.001963
0.001945
0.001927
0.001909
0.001892
0.001874
0.001857
0.001840
0.001823
0.001806
0.001789
0.001789
0.001772
0.001772
0.001755
0.001659
0.001643
0.001755
0.001738
0.001629
0.001612
0.000430
0.000978
0.000009
0.000009
0.000015
0.000011
0.000012
0.000008
0.000000
0.001533
0.001504
0.001186
0.001451
0.001445
0.001538
0.001529
0.001513
0.001480
0.001497
0.001473
0.000019
0.000000
0.001010
0.001172
0.001101
0.001035
0.000075
0.000122
0.000187
0.000263
0.000390
0.000934
0.000558
0.000724
0.000845
0.000047
0.000073
0.001254
0.001219
0.001179
0.001197
0.001120
0.001170
0.001147
0.001105
0.001251
0.001334
0.001099
0.001107
0.001189
0.001138
0.001407
0.001472
0.001542
0.001765
0.001620
0.001695
0.002030
0.001990
0.002064
0.002077
0.002043
0.002070
0.002051
0.002046
0.001820
0.001753
0.001885
0.001942
0.002040
0.002029
0.002015
0.002003
0.001989
0.001976
0.001960
0.001947
0.001928
0.001917
0.001902
0.001886
0.001870
0.001854
0.001839
0.001825
0.001738
0.001722
0.001812
0.001798
0.001721
0.001703
0.001705
0.001688
0.001500
0.001506
0.001598
0.001579
0.001686
0.001669
0.000922
0.000006
0.000431
0.000005
0.000006
0.000007
0.000008
0.000005
0.000000
0.001390
0.001178
0.001464
0.001452
0.001385
0.001400
0.001476
0.001470
0.001432
0.001414
0.000029
0.000012
0.000000
0.000975
0.001111
0.001179
0.001026
0.000110
0.000171
0.000212
0.000368
0.000897
0.000637
0.000792
0.000052
0.000079
0.001240
0.001278
0.001213
0.001191
0.001139
0.001183
0.001167
0.001137
0.001271
0.001349
0.001148
0.001176
0.001221
0.001419
0.001484
0.001552
0.001681
0.001617
0.001557
0.001985
0.002041
0.002016
0.002038
0.002032
0.001831
0.001682
0.001768
0.001877
0.001929
0.002034
0.002027
0.002021
0.002008
0.002005
0.001986
0.001983
0.001961
0.001958
0.001945
0.001932
0.001917
0.001886
0.001900
0.001440
0.001443
0.001876
0.001866
0.001783
0.001769
0.001855
0.001842
0.001672
0.001655
0.001755
0.001742
0.001565
0.001548
0.001516
0.001533
0.001652
0.001635
0.001638
0.001622
0.000939
0.000756
0.000552
0.000006
0.000005
0.000005
0.000004
0.000004
0.000003
0.000000
0.001160
0.001350
0.001257
0.001406
0.001386
0.001319
0.001411
0.001409
0.001378
0.001361
0.001382
0.001378
0.000032
0.000018
0.000007
0.000000
0.000898
0.001068
0.001153
0.000963
0.000129
0.000168
0.000427
0.000782
0.000602
0.000051
0.000072
0.001244
0.001110
0.001288
0.001219
0.001199
0.001165
0.001189
0.001181
0.001176
0.001368
0.001297
0.001212
0.001255
0.001437
0.001499
0.001591
0.001525
0.001393
0.001965
0.002012
0.002033
0.001619
0.001809
0.001854
0.001723
0.001903
0.001932
0.001878
0.002044
0.002033
0.002028
0.002005
0.001983
0.001980
0.001960
0.001952
0.001919
0.001927
0.001417
0.001400
0.001382
0.001435
0.001451
0.001467
0.001500
0.001483
0.001923
0.001907
0.001829
0.001819
0.001908
0.001878
0.001728
0.001715
0.001808
0.001799
0.001618
0.001601
0.001567
0.001584
0.001605
0.001588
0.001700
0.001686
0.000916
0.000599
0.000719
0.000375
0.000138
0.000082
0.000003
0.000003
0.000002
0.000002
0.000000
0.001060
0.001206
0.001301
0.001213
0.001347
0.001333
0.001279
0.001345
0.001346
0.001317
0.001303
0.001316
0.001313
0.000033
0.000024
0.000021
0.000011
0.000004
0.000000
0.000804
0.000969
0.000986
0.000094
0.000358
0.000591
0.000044
0.000054
0.001237
0.001056
0.001068
0.001215
0.001209
0.001202
0.001191
0.001200
0.001214
0.001242
0.001327
0.001269
0.001456
0.001522
0.001382
0.001555
0.002018
0.001991
0.002081
0.001649
0.001809
0.001736
0.001953
0.001877
0.002095
0.002093
0.002032
0.002020
0.001982
0.001366
0.001347
0.001331
0.001313
0.001480
0.001463
0.001445
0.001427
0.001498
0.001515
0.001532
0.001550
0.001982
0.001889
0.001865
0.001972
0.001788
0.001777
0.001874
0.001851
0.001572
0.001555
0.001521
0.001538
0.001673
0.001659
0.001762
0.001754
0.000778
0.000503
0.000185
0.000001
0.000002
0.000001
0.000001
0.000000
0.001033
0.001165
0.001249
0.001169
0.001285
0.001273
0.001222
0.001280
0.001281
0.001254
0.001242
0.001247
0.001247
0.000028
0.000021
0.000018
0.000013
0.000007
0.000003
0.000000
0.000614
0.000767
0.000876
0.000209
0.000417
0.000099
0.000029
0.001052
0.001041
0.000855
0.000895
0.001211
0.001636
0.001212
0.001216
0.001224
0.001243
0.001273
0.001319
0.001436
0.001488
0.001362
0.001572
0.001495
0.002087
0.002180
0.001712
0.001801
0.001955
0.001871
0.002220
0.002149
0.002114
0.001661
0.002108
0.002078
0.001296
0.001276
0.001258
0.001237
0.001219
0.001409
0.001391
0.001372
0.001354
0.001454
0.001437
0.001419
0.001402
0.001384
0.001471
0.001488
0.001505
0.002106
0.001957
0.002078
0.001862
0.001828
0.001951
0.001589
0.001645
0.001625
0.001606
0.001742
0.001736
0.001844
0.001815
0.000782
0.000538
0.000272
0.000001
0.000001
0.000001
0.000001
0.000000
0.001000
0.001117
0.001191
0.001116
0.001224
0.001211
0.001163
0.001211
0.001212
0.001190
0.001181
0.001172
0.001174
0.000021
0.000017
0.000012
0.000009
0.000005
0.000002
0.000000
0.000479
0.000611
0.000209
0.000018
0.000019
0.001016
0.000855
0.000871
0.000632
0.001218
0.001594
0.001227
0.001239
0.001262
0.001306
0.001333
0.001430
0.001367
0.001517
0.001454
0.002033
0.002100
0.002121
0.001724
0.001812
0.001919
0.002173
0.002215
0.001651
0.001720
0.002226
0.001198
0.001335
0.001316
0.001296
0.001276
0.001256
0.001367
0.001349
0.001330
0.001312
0.001555
0.001538
0.001522
0.001601
0.001510
0.001494
0.001479
0.001573
0.001585
0.001651
0.001644
0.002259
0.002115
0.001944
0.002077
0.001679
0.001720
0.001682
0.001826
0.001806
0.001935
0.000762
0.000540
0.000288
0.000001
0.000001
0.000000
0.000000
0.000000
0.000961
0.001068
0.001134
0.001068
0.001155
0.001147
0.001107
0.001132
0.001135
0.001116
0.001110
0.001092
0.001096
0.001058
0.001053
0.000016
0.000013
0.000011
0.000009
0.000006
0.000004
0.000002
0.000000
0.000272
0.000313
0.000015
0.000016
0.000015
0.000978
0.000760
0.000629
0.000334
0.001234
0.001596
0.001534
0.001248
0.001268
0.001302
0.001334
0.001399
0.001354
0.001475
0.001423
0.001997
0.002095
0.001803
0.001889
0.001769
0.002271
0.002389
0.001660
0.001720
0.001611
0.002484
0.001179
0.001235
0.001157
0.001138
0.001116
0.001098
0.001072
0.001293
0.001274
0.001255
0.001235
0.001215
0.001467
0.001453
0.001426
0.001404
0.001647
0.001679
0.001620
0.001584
0.001564
0.001603
0.002563
0.001690
0.001736
0.001746
0.002297
0.002116
0.001812
0.001920
0.002066
0.000731
0.000525
0.000289
0.000000
0.000000
0.000000
0.000000
0.000000
0.000912
0.001013
0.001070
0.001008
0.001078
0.001073
0.001034
0.001041
0.001036
0.001003
0.001005
0.001015
0.001006
0.000961
0.000969
0.000013
0.000011
0.000009
0.000007
0.000005
0.000003
0.000001
0.000000
0.000014
0.000014
0.000014
0.000014
0.000013
0.000956
0.000692
0.000387
0.000014
0.001257
0.001546
0.001490
0.001271
0.001292
0.001321
0.001380
0.001347
0.001442
0.001400
0.001554
0.001969
0.002077
0.001848
0.001763
0.002187
0.002280
0.001680
0.001609
0.002359
0.002426
0.001051
0.001025
0.001004
0.000981
0.001214
0.001195
0.001193
0.001171
0.001149
0.001103
0.001126
0.001389
0.001381
0.001368
0.001352
0.001335
0.001586
0.001531
0.001523
0.001484
0.001765
0.001753
0.001689
0.001681
0.001727
0.002630
0.001875
0.001874
0.002334
0.002072
0.000693
0.000502
0.000278
0.000000
0.000000
0.000000
0.000000
0.000000
0.000863
0.000954
0.000998
0.000943
0.000964
0.000932
0.000902
0.000936
0.000958
0.000960
0.000918
0.000917
0.000871
0.000011
0.000010
0.000008
0.000007
0.000006
0.000004
0.000002
0.000001
0.000000
0.000014
0.000013
0.000013
0.000012
0.000011
0.000957
0.000648
0.000336
0.000014
0.000014
0.001279
0.001502
0.001457
0.001291
0.001308
0.001328
0.001366
0.001342
0.001417
0.001383
0.001510
0.001555
0.001939
0.002027
0.001831
0.001742
0.002113
0.002188
0.001665
0.001602
0.002254
0.002310
0.002484
0.000953
0.000924
0.000896
0.000869
0.001079
0.001054
0.001003
0.001029
0.001174
0.001322
0.001153
0.001131
0.001109
0.001063
0.001087
0.001476
0.001520
0.001450
0.001503
0.001472
0.001735
0.001670
0.001617
0.001902
0.001839
0.001863
0.002687
0.002092
0.002394
0.000647
0.000472
0.000264
0.000000
0.000000
0.000000
0.000000
0.000000
0.000000
0.000803
0.000887
0.000863
0.000876
0.000855
0.000882
0.000854
0.000842
0.000818
0.000814
0.000789
0.000760
0.000731
0.000010
0.000009
0.000007
0.000006
0.000005
0.000003
0.000002
0.000001
0.000000
0.000013
0.000013
0.000012
0.000012
0.000011
0.000968
0.000648
0.000329
0.000015
0.000014
0.000014
0.001296
0.001469
0.001431
0.001306
0.001322
0.001357
0.001339
0.001398
0.001370
0.000979
0.001478
0.001516
0.001557
0.001903
0.001976
0.001803
0.001720
0.002045
0.002108
0.001651
0.001599
0.002163
0.002210
0.000841
0.000811
0.000781
0.000751
0.002359
0.002532
0.000950
0.000977
0.000922
0.000893
0.001040
0.001015
0.000965
0.000990
0.001301
0.001422
0.001276
0.001249
0.001222
0.001189
0.001203
0.001560
0.001602
0.001666
0.001582
0.001648
0.001624
0.001869
0.001817
0.002091
0.002039
0.002735
0.002417
0.000587
0.000435
0.000246
0.000000
0.000000
0.000000
0.000000
0.000000
0.000700
0.000666
0.000721
0.000784
0.000794
0.000778
0.000785
0.000772
0.000750
0.000736
0.000708
0.000687
0.000635
0.000599
0.000010
0.000009
0.000008
0.000007
0.000005
0.000004
0.000003
0.000002
0.000001
0.000000
0.000013
0.000013
0.000012
0.000011
0.000010
0.000654
0.000333
0.000015
0.000015
0.000014
0.000014
0.000660
0.001309
0.001443
0.001413
0.001317
0.001330
0.001347
0.001363
0.001383
0.000987
0.001451
0.001483
0.001518
0.001555
0.001865
0.001927
0.001775
0.001701
0.001984
0.002036
0.001642
0.001592
0.002083
0.002252
0.002123
0.000718
0.000685
0.000863
0.000833
0.000802
0.000770
0.002400
0.002573
0.000911
0.000938
0.000883
0.000854
0.001145
0.001167
0.001098
0.001121
0.001455
0.001376
0.001376
0.001320
0.001298
0.001358
0.001624
0.001751
0.001799
0.001784
0.002085
0.002004
0.002373
0.002774
0.002286
0.000530
0.000396
0.000226
0.000000
0.000000
0.000000
0.000000
0.000000
0.000547
0.000590
0.000612
0.000645
0.000643
0.000708
0.000707
0.000713
0.000681
0.000689
0.000637
0.000562
0.000530
0.000651
0.000614
0.000009
0.000008
0.000007
0.000006
0.000005
0.000004
0.000003
0.000002
0.000001
0.000000
0.000012
0.000013
0.000011
0.000011
0.000010
0.000337
0.000016
0.000015
0.000015
0.000014
0.000013
0.000340
0.000665
0.001319
0.001423
0.001401
0.001325
0.001336
0.001350
0.001364
0.001381
0.000994
0.001455
0.001428
0.001485
0.001516
0.001549
0.001829
0.001882
0.001750
0.001685
0.001930
0.001974
0.001630
0.001583
0.002013
0.002158
0.002047
0.002187
0.000737
0.000703
0.000825
0.000795
0.000764
0.000733
0.002434
0.002605
0.001046
0.001072
0.001015
0.000988
0.001256
0.001321
0.001210
0.001277
0.001553
0.001485
0.001450
0.001533
0.001825
0.001985
0.002056
0.002367
0.002805
0.002314
0.000479
0.000355
0.000204
0.000000
0.000000
0.000000
0.000000
0.000000
0.000512
0.000484
0.000495
0.000543
0.000581
0.000597
0.000613
0.000567
0.000476
0.000485
0.000577
0.000537
0.000667
0.000629
0.000009
0.000008
0.000008
0.000007
0.000006
0.000004
0.000003
0.000003
0.000002
0.000001
0.000000
0.000012
0.000013
0.000011
0.000010
0.000010
0.000017
0.000016
0.000016
0.000015
0.000014
0.000013
0.000018
0.000342
0.000669
0.001325
0.001400
0.001329
0.001338
0.001350
0.001363
0.001377
0.000997
0.001409
0.001456
0.001428
0.001483
0.001510
0.001541
0.001797
0.001842
0.001727
0.001668
0.001883
0.001920
0.001616
0.001571
0.001953
0.002077
0.001982
0.002211
0.002101
0.000701
0.000666
0.000919
0.000953
0.000882
0.000836
0.002461
0.002631
0.001158
0.001230
0.001112
0.001176
0.001410
0.001500
0.001365
0.001456
0.001735
0.001689
0.002104
0.001993
0.002373
0.002829
0.002337
0.000403
0.000307
0.000180
0.000000
0.000000
0.000000
0.000000
0.000000
0.000000
0.000440
0.000440
0.000450
0.000441
0.000486
0.000479
0.000403
0.000493
0.000448
0.000589
0.000546
0.000629
0.000591
0.000408
0.000009
0.000008
0.000007
0.000006
0.000005
0.000004
0.000003
0.000002
0.000001
0.000001
0.000000
0.000012
0.000013
0.000011
0.000010
0.000010
0.000017
0.000016
0.000016
0.000015
0.000014
0.000013
0.000018
0.000019
0.000344
0.000671
0.001327
0.001389
0.001330
0.001337
0.001347
0.001358
0.001369
0.000998
0.001401
0.001453
0.001436
0.001413
0.001530
0.001474
0.001503
0.001768
0.001806
0.001704
0.001649
0.001841
0.001872
0.001600
0.001557
0.001900
0.002006
0.001924
0.002027
0.002229
0.002121
0.000807
0.000776
0.001047
0.001120
0.001028
0.001035
0.002482
0.002650
0.001312
0.001412
0.001245
0.001347
0.001651
0.001615
0.002019
0.001892
0.002368
0.002846
0.002354
0.000314
0.000247
0.000151
0.000001
0.000000
0.000000
0.000000
0.000000
0.000395
0.000363
0.000388
0.000400
0.000380
0.000358
0.000245
0.000335
0.000323
0.000361
0.000501
0.000454
0.000550
0.000505
0.000764
0.000739
0.000406
0.000009
0.000008
0.000007
0.000007
0.000006
0.000005
0.000004
0.000003
0.000002
0.000001
0.000001
0.000000
0.000012
0.000013
0.000011
0.000010
0.000010
0.000017
0.000016
0.000016
0.000015
0.000014
0.000013
0.000018
0.000019
0.000019
0.000345
0.000671
0.001327
0.001379
0.001328
0.001333
0.001341
0.001350
0.001359
0.000998
0.001447
0.001452
0.001389
0.001426
0.001398
0.001517
0.001493
0.001470
0.001739
0.001771
0.001680
0.001629
0.001801
0.001827
0.001583
0.001542
0.001503
0.001851
0.001945
0.001872
0.001962
0.002043
0.002243
0.002136
0.001009
0.000950
0.001160
0.001261
0.001085
0.001139
0.002497
0.002663
0.001570
0.001545
0.001948
0.001813
0.002332
0.002855
0.002365
0.000181
0.000114
0.000001
0.000001
0.000000
0.000000
0.000000
0.000169
0.000180
0.000311
0.000327
0.000325
0.000307
0.000250
0.000261
0.000355
0.000311
0.000271
0.000460
0.000414
0.000695
0.000649
0.000761
0.001048
0.000368
0.000009
0.000008
0.000007
0.000006
0.000005
0.000005
0.000004
0.000000
0.000003
0.000002
0.000001
0.000001
0.000012
0.000013
0.000011
0.000010
0.000010
0.000017
0.000018
0.000016
0.000016
0.000015
0.000014
0.000013
0.000019
0.000019
0.000020
0.000346
0.000670
0.001324
0.001367
0.001324
0.001327
0.001333
0.001340
0.001347
0.000995
0.001430
0.001444
0.001374
0.001407
0.001381
0.001481
0.001458
0.001433
0.001464
0.001710
0.001738
0.001656
0.001608
0.001763
0.001786
0.001565
0.001525
0.001488
0.001806
0.001889
0.001823
0.001903
0.001975
0.002055
0.002252
0.002147
0.001046
0.001479
0.001556
0.002506
0.002669
0.001843
0.001622
0.002271
0.002856
0.002372
0.000109
0.000068
0.000002
0.000001
0.000001
0.000000
0.000000
0.000123
0.000132
0.000161
0.000253
0.000249
0.000236
0.000184
0.000187
0.000317
0.000301
0.000255
0.000197
0.000573
0.000526
0.000772
0.000722
0.001070
0.001013
0.000474
0.000757
0.000435
0.000009
0.000008
0.000008
0.000007
0.000006
0.000005
0.000004
0.000003
0.000000
0.000001
0.000003
0.000002
0.000001
0.000012
0.000013
0.000011
0.000010
0.000010
0.000017
0.000019
0.000018
0.000016
0.000016
0.000015
0.000014
0.000013
0.000020
0.000020
0.000021
0.000345
0.000668
0.000020
0.001318
0.001353
0.001317
0.001319
0.001323
0.001328
0.001333
0.000990
0.001416
0.001358
0.001388
0.001363
0.001450
0.001435
0.001414
0.001455
0.001440
0.001438
0.001682
0.001705
0.001632
0.001586
0.001727
0.001746
0.001545
0.001507
0.001473
0.001763
0.001837
0.001777
0.001849
0.002256
0.001914
0.001985
0.002063
0.002153
0.001475
0.001639
0.001510
0.002509
0.002667
0.002236
0.002848
0.002373
0.002257
0.000069
0.000086
0.000050
0.000004
0.000003
0.000006
0.000002
0.000001
0.000000
0.000074
0.000090
0.000103
0.000118
0.000119
0.000182
0.000169
0.000148
0.000130
0.000254
0.000242
0.000206
0.000140
0.000129
0.000700
0.000862
0.001178
0.000707
0.000721
0.000689
0.000480
0.000009
0.000008
0.000007
0.000006
0.000006
0.000005
0.000004
0.000003
0.000000
0.000001
0.000001
0.000003
0.000002
0.000012
0.000013
0.000011
0.000010
0.000009
0.000010
0.000017
0.000019
0.000018
0.000016
0.000016
0.000015
0.000014
0.000013
0.000020
0.000020
0.000021
0.000022
0.000344
0.000665
0.000021
0.001310
0.001337
0.001308
0.001308
0.001311
0.001315
0.001318
0.000983
0.001392
0.001341
0.001367
0.001344
0.001420
0.001392
0.001441
0.001426
0.001417
0.001654
0.001674
0.001607
0.001565
0.001692
0.001708
0.001526
0.001489
0.001456
0.001723
0.001789
0.001735
0.001799
0.001858
0.002157
0.001922
0.001992
0.002068
0.001528
0.002183
0.002507
0.002659
0.002829
0.002372
0.002157
0.002253
0.000041
0.000058
0.000008
0.000024
0.000010
0.000004
0.000007
0.000002
0.000000
0.000041
0.000048
0.000055
0.000071
0.000063
0.000112
0.000103
0.000090
0.000080
0.000118
0.000181
0.000178
0.000148
0.000134
0.001069
0.001287
0.000715
0.001133
0.000656
0.000534
0.000008
0.000008
0.000007
0.000006
0.000005
0.000005
0.000004
0.000003
0.000000
0.000001
0.000001
0.000002
0.000002
0.000012
0.000013
0.000011