# vtk DataFile Version 2.0
vtk title
ASCII
DATASET UNSTRUCTURED_GRID

POINTS 3656 float
0.000000 -0.050000 0.000000
0.001951 -0.049808 0.000000
0.001247 -0.048558 0.000000
0.000000 -0.048000 0.000000
0.003902 -0.049616 0.000000
0.000000 -0.046000 0.000000
0.002935 -0.048069 0.000000
0.001350 -0.046912 0.000000
0.005853 -0.049424 0.000000
0.007804 -0.049231 0.000000
0.004850 -0.048058 0.000000
0.004225 -0.046727 0.000000
0.000000 -0.044000 0.000000
0.001506 -0.045022 0.000000
0.002878 -0.046070 0.000000
0.009755 -0.049039 0.000000
0.000000 -0.042000 0.000000
0.006703 -0.047825 0.000000
0.008536 -0.047555 0.000000
0.005676 -0.046511 0.000000
0.004456 -0.045300 0.000000
0.001642 -0.043019 0.000000
0.003170 -0.044127 0.000000
0.002972 -0.042827 0.000000
0.010381 -0.047244 0.000000
0.011630 -0.048470 0.000000
0.001280 -0.041277 0.000000
0.000000 -0.040000 0.000000
0.009151 -0.045907 0.000000
0.007469 -0.046149 0.000000
0.006349 -0.045006 0.000000
0.005125 -0.043825 0.000000
0.002782 -0.041474 0.000000
0.004164 -0.042648 0.000000
0.013506 -0.047901 0.000000
0.009799 -0.044636 0.000000
0.010796 -0.045645 0.000000
0.012191 -0.046765 0.000000
0.015382 -0.047332 0.000000
0.017258 -0.046763 0.000000
0.000000 -0.038116 0.000000
0.001837 -0.039830 0.000000
0.001162 -0.038631 0.000000
0.008140 -0.044361 0.000000
0.006652 -0.043550 0.000000
0.003675 -0.039659 0.000000
0.005957 -0.042321 0.000000
0.004748 -0.041042 0.000000
0.009609 -0.043257 0.000000
0.019134 -0.046194 0.000000
0.013999 -0.046196 0.000000
0.011173 -0.044032 0.000000
0.012665 -0.045126 0.000000
0.017646 -0.045056 0.000000
0.015821 -0.045611 0.000000
0.000000 -0.036157 0.000000
0.001279 -0.037067 0.000000
0.002701 -0.038127 0.000000
0.007809 -0.042268 0.000000
0.004595 -0.038076 0.000000
0.005512 -0.039489 0.000000
0.006643 -0.040810 0.000000
0.011375 -0.042516 0.000000
0.009855 -0.041558 0.000000
0.000000 -0.034159 0.000000
0.020863 -0.045270 0.000000
0.019408 -0.044367 0.000000
0.017921 -0.043396 0.000000
0.014426 -0.044437 0.000000
0.012996 -0.043530 0.000000
0.016212 -0.043884 0.000000
0.001425 -0.035169 0.000000
0.002740 -0.036165 0.000000
0.004024 -0.036754 0.000000
0.005336 -0.036538 0.000000
0.008483 -0.040421 0.000000
0.006273 -0.037858 0.000000
0.007350 -0.039319 0.000000
0.012838 -0.041919 0.000000
0.011769 -0.040868 0.000000
0.010380 -0.039886 0.000000
0.016801 -0.042444 0.000000
0.001520 -0.033224 0.000000
0.000000 -0.032158 0.000000
0.022592 -0.044346 0.000000
0.024321 -0.043422 0.000000
0.021077 -0.043447 0.000000
0.019665 -0.042588 0.000000
0.018201 -0.041725 0.000000
0.014821 -0.042232 0.000000
0.002991 -0.034229 0.000000
0.004256 -0.035253 0.000000
0.005803 -0.034911 0.000000
0.006879 -0.036200 0.000000
0.009125 -0.038814 0.000000
0.007963 -0.037525 0.000000
0.013555 -0.040574 0.000000
0.012177 -0.039391 0.000000
0.010900 -0.038309 0.000000
0.016516 -0.040993 0.000000
0.003130 -0.032262 0.000000
0.001558 -0.031229 0.000000
0.000000 -0.030158 0.000000
0.026050 -0.042498 0.000000
0.022713 -0.042496 0.000000
0.024311 -0.041542 0.000000
0.021223 -0.041617 0.000000
0.019919 -0.040856 0.000000
0.018387 -0.040074 0.000000
0.015156 -0.040078 0.000000
0.004811 -0.033365 0.000000
0.006485 -0.033605 0.000000
0.007386 -0.034577 0.000000
0.008516 -0.035791 0.000000
0.009664 -0.037060 0.000000
0.013977 -0.038928 0.000000
0.012675 -0.037804 0.000000
0.011360 -0.036579 0.000000
0.017049 -0.039148 0.000000
0.004735 -0.031280 0.000000
0.003162 -0.030240 0.000000
0.001604 -0.029201 0.000000
0.000000 -0.028157 0.000000
0.025862 -0.040683 0.000000
0.027779 -0.041573 0.000000
0.022714 -0.040599 0.000000
0.024282 -0.039547 0.000000
0.021180 -0.039786 0.000000
0.019866 -0.039439 0.000000
0.018978 -0.038439 0.000000
0.015700 -0.038145 0.000000
0.006284 -0.032026 0.000000
0.007699 -0.032983 0.000000
0.008921 -0.034100 0.000000
0.010123 -0.035339 0.000000
0.014450 -0.037299 0.000000
0.013045 -0.036071 0.000000
0.011753 -0.034893 0.000000
0.017441 -0.037411 0.000000
0.006314 -0.030185 0.000000
0.004754 -0.029242 0.000000
0.003192 -0.028228 0.000000
0.001600 -0.027200 0.000000
0.004503 -0.008672 0.000000
0.004487 -0.008832 0.000000
0.000000 -0.026157 0.000000
0.004339 -0.008858 0.000000
0.024879 -0.038204 0.000000
0.025944 -0.038997 0.000000
0.027506 -0.039713 0.000000
0.029294 -0.040330 0.000000
0.022504 -0.038784 0.000000
0.023781 -0.038068 0.000000
0.020773 -0.037981 0.000000
0.019252 -0.036705 0.000000
0.016102 -0.036476 0.000000
0.007841 -0.031106 0.000000
0.009287 -0.032301 0.000000
0.010516 -0.033609 0.000000
0.014690 -0.035421 0.000000
0.013347 -0.034424 0.000000
0.012161 -0.033297 0.000000
0.017753 -0.035654 0.000000
0.007923 -0.029210 0.000000
0.006346 -0.028247 0.000000
0.004776 -0.027268 0.000000
0.003199 -0.026249 0.000000
0.001605 -0.025208 0.000000
0.004618 -0.008603 0.000000
0.004611 -0.008739 0.000000
0.004620 -0.008858 0.000000
0.004567 -0.008981 0.000000
0.004724 -0.008528 0.000000
0.004526 -0.008552 0.000000
0.004722 -0.008393 0.000000
0.004611 -0.008468 0.000000
0.004735 -0.008300 0.000000
0.004370 -0.008720 0.000000
0.004415 -0.008571 0.000000
0.004399 -0.008995 0.000000
0.004502 -0.009164 0.000000
0.000000 -0.024156 0.000000
0.004213 -0.008782 0.000000
0.004226 -0.008960 0.000000
0.024479 -0.036968 0.000000
0.025874 -0.037459 0.000000
0.027269 -0.037851 0.000000
0.029018 -0.038380 0.000000
0.030809 -0.039086 0.000000
0.032325 -0.037843 0.000000
0.022760 -0.036835 0.000000
0.020977 -0.035857 0.000000
0.019405 -0.034831 0.000000
0.016240 -0.034641 0.000000
0.009746 -0.030201 0.000000
0.011064 -0.031818 0.000000
0.014850 -0.033634 0.000000
0.013515 -0.033029 0.000000
0.012771 -0.031743 0.000000
0.017801 -0.033873 0.000000
0.010808 -0.028763 0.000000
0.009394 -0.028223 0.000000
0.007895 -0.027301 0.000000
0.006358 -0.026331 0.000000
0.004798 -0.025320 0.000000
0.003208 -0.024283 0.000000
0.001605 -0.023225 0.000000
0.004725 -0.008665 0.000000
0.004724 -0.008802 0.000000
0.004711 -0.008937 0.000000
0.004683 -0.009095 0.000000
0.004649 -0.009287 0.000000
0.004835 -0.008589 0.000000
0.004835 -0.008450 0.000000
0.004835 -0.008311 0.000000
0.004835 -0.008171 0.000000
0.004835 -0.008032 0.000000
0.004735 -0.008161 0.000000
0.004735 -0.008022 0.000000
0.004481 -0.008443 0.000000
0.004590 -0.008300 0.000000
0.004637 -0.008204 0.000000
0.004735 -0.007882 0.000000
0.004264 -0.008601 0.000000
0.004339 -0.008441 0.000000
0.004097 -0.009050 0.000000
0.004259 -0.009170 0.000000
0.004429 -0.009365 0.000000
0.000000 -0.022156 0.000000
0.004083 -0.008643 0.000000
0.004037 -0.008863 0.000000
0.024197 -0.035403 0.000000
0.025436 -0.036169 0.000000
0.026726 -0.036188 0.000000
0.028527 -0.036324 0.000000
0.030453 -0.037104 0.000000
0.031987 -0.035968 0.000000
0.033840 -0.036599 0.000000
0.022613 -0.034782 0.000000
0.021057 -0.034009 0.000000
0.019424 -0.033057 0.000000
0.016276 -0.032800 0.000000
0.011914 -0.030047 0.000000
0.014595 -0.031842 0.000000
0.013604 -0.030550 0.000000
0.017876 -0.032137 0.000000
0.024171 -0.033666 0.000000
0.012180 -0.028226 0.000000
0.010829 -0.027185 0.000000
0.012325 -0.026391 0.000000
0.009418 -0.026365 0.000000
0.007930 -0.025428 0.000000
0.006389 -0.024431 0.000000
0.004803 -0.023407 0.000000
0.003200 -0.022344 0.000000
0.001606 -0.021269 0.000000
0.004608 -0.009521 0.000000
0.004835 -0.008729 0.000000
0.004835 -0.008868 0.000000
0.004835 -0.009012 0.000000
0.004835 -0.009393 0.000000
0.004835 -0.009183 0.000000
0.004835 -0.007893 0.000000
0.004835 -0.007753 0.000000
0.004835 -0.007614 0.000000
0.004835 -0.007474 0.000000
0.004965 -0.008665 0.000000
0.004966 -0.008524 0.000000
0.004966 -0.008383 0.000000
0.004964 -0.008243 0.000000
0.004963 -0.008105 0.000000
0.004965 -0.007967 0.000000
0.004835 -0.007335 0.000000
0.004835 -0.007196 0.000000
0.004835 -0.007056 0.000000
0.004735 -0.007743 0.000000
0.004735 -0.007604 0.000000
0.004735 -0.007465 0.000000
0.004614 -0.007955 0.000000
0.004617 -0.008091 0.000000
0.004434 -0.008300 0.000000
0.004517 -0.008187 0.000000
0.004615 -0.007812 0.000000
0.004166 -0.008457 0.000000
0.004265 -0.008300 0.000000
0.003950 -0.009034 0.000000
0.004011 -0.009221 0.000000
0.004152 -0.009422 0.000000
0.004338 -0.009626 0.000000
0.000000 -0.020156 0.000000
0.003979 -0.008479 0.000000
0.003890 -0.008679 0.000000
0.003799 -0.008890 0.000000
0.025924 -0.034608 0.000000
0.027455 -0.035061 0.000000
0.028598 -0.034682 0.000000
0.030170 -0.035002 0.000000
0.031880 -0.034128 0.000000
0.033526 -0.034787 0.000000
0.035355 -0.035355 0.000000
0.022530 -0.032897 0.000000
0.020948 -0.032118 0.000000
0.019444 -0.031375 0.000000
0.016365 -0.031129 0.000000
0.013533 -0.029026 0.000000
0.015040 -0.030032 0.000000
0.018048 -0.030543 0.000000
0.024003 -0.031785 0.000000
0.025749 -0.032574 0.000000
0.013706 -0.027294 0.000000
0.010947 -0.025486 0.000000
0.013838 -0.025505 0.000000
0.012452 -0.024649 0.000000
0.009514 -0.024569 0.000000
0.001609 -0.019303 0.000000
0.008006 -0.023576 0.000000
0.006408 -0.022564 0.000000
0.004803 -0.021543 0.000000
0.003222 -0.020432 0.000000
0.004835 -0.006917 0.000000
0.004835 -0.006778 0.000000
0.004835 -0.006638 0.000000
0.004835 -0.006499 0.000000
0.004835 -0.006359 0.000000
0.004835 -0.006220 0.000000
0.004835 -0.006081 0.000000
0.004563 -0.009808 0.000000
0.004835 -0.009648 0.000000
0.004963 -0.008807 0.000000
0.004962 -0.008951 0.000000
0.004972 -0.009107 0.000000
0.005031 -0.009527 0.000000
0.004998 -0.009292 0.000000
0.004967 -0.007828 0.000000
0.004969 -0.007688 0.000000
0.004969 -0.007549 0.000000
0.004967 -0.007408 0.000000
0.004965 -0.007267 0.000000
0.004965 -0.007126 0.000000
0.004965 -0.006988 0.000000
0.005091 -0.008741 0.000000
0.005100 -0.008599 0.000000
0.005101 -0.008457 0.000000
0.005098 -0.008314 0.000000
0.005091 -0.008175 0.000000
0.005091 -0.008040 0.000000
0.005099 -0.007904 0.000000
0.004835 -0.005941 0.000000
0.004835 -0.005802 0.000000
0.004835 -0.005663 0.000000
0.004835 -0.005523 0.000000
0.004835 -0.005384 0.000000
0.004835 -0.005244 0.000000
0.004835 -0.005105 0.000000
[...]
POINT_DATA 3656
SCALARS A double 1
LOOKUP_TABLE Atable
0.000000
0.000000
0.000000
0.000000
0.000000
0.000000
0.000000
0.000000
0.000000
0.000000
0.000000
0.000000
0.000000
0.000000
0.000000
0.000000
0.000000
0.000000
0.000000
0.000000
0.000000
0.000000
0.000000
0.000000
0.000000
0.000000
0.000000
0.000000
0.000000
0.000000
0.000000
0.000000
0.000000
0.000001
0.000000
0.000001
0.000000
0.000000
0.000000
0.000000
0.000000
0.000000
0.000000
0.000001
0.000001
0.000001
0.000001
0.000001
0.000001
0.000000
0.000000
0.000001
0.000001
0.000000
0.000000
0.000000
0.000000
0.000001
0.000001
0.000001
0.000001
0.000001
0.000001
0.000001
0.000000
0.000000
0.000000
0.000001
0.000001
0.000001
0.000001
0.000000
0.000001
0.000001
0.000002
0.000001
0.000002
0.000001
0.000001
0.000002
0.000002
0.000001
0.000001
0.000000
0.000000
0.000000
0.000001
0.000001
0.000001
0.000001
0.000001
0.000001
0.000002
0.000002
0.000002
0.000002
0.000002
0.000002
0.000002
0.000002
0.000001
0.000001
0.000000
0.000000
0.000001
0.000001
0.000001
0.000002
0.000002
0.000002
0.000002
0.000003
0.000003
0.000003
0.000003
0.000002
0.000003
0.000003
0.000002
0.000002
0.000002
0.000001
0.000000
0.000001
0.000000
0.000001
0.000002
0.000002
0.000002
0.000003
0.000003
0.000003
0.000003
0.000003
0.000003
0.000003
0.000004
0.000004
0.000003
0.000004
0.000003
0.000002
0.000001
0.000047
0.000042
0.000000
0.000040
0.000002
0.000002
0.000001
0.000000
0.000002
0.000002
0.000003
0.000004
0.000004
0.000004
0.000004
0.000004
0.000004
0.000004
0.000005
0.000004
0.000005
0.000004
0.000004
0.000003
0.000001
0.000052
0.000047
0.000044
0.000040
0.000059
0.000051
0.000069
0.000058
0.000082
0.000043
0.000047
0.000038
0.000035
0.000000
0.000039
0.000036
0.000003
0.000002
0.000002
0.000001
0.000000
0.000000
0.000003
0.000004
0.000005
0.000005
0.000005
0.000005
0.000005
0.000005
0.000006
0.000005
0.000007
0.000006
0.000006
0.000005
0.000004
0.000003
0.000002
0.000052
0.000046
0.000042
0.000038
0.000034
0.000056
0.000066
0.000084
0.000119
0.000155
0.000123
0.000160
0.000052
0.000061
0.000097
0.000195
0.000043
0.000047
0.000033
0.000033
0.000031
0.000000
0.000038
0.000035
0.000004
0.000003
0.000003
0.000002
0.000001
0.000001
0.000000
0.000005
0.000005
0.000006
0.000006
0.000006
0.000006
0.000007
0.000007
0.000005
0.000008
0.000008
0.000009
0.000007
0.000007
0.000006
0.000005
0.000004
0.000002
0.000030
0.000050
0.000045
0.000040
0.000032
0.000036
0.000189
0.000222
0.000253
0.000283
0.000307
0.000320
0.000334
0.000353
0.000381
0.000416
0.000311
0.000337
0.000363
0.000229
0.000260
0.000290
0.000162
0.000127
0.000052
0.000090
0.000197
0.000041
0.000045
0.000032
0.000030
0.000029
0.000027
0.000000
0.000037
0.000034
0.000031
0.000004
0.000003
0.000003
0.000003
0.000002
0.000001
0.000000
0.000006
0.000007
0.000007
0.000007
0.000008
0.000008
0.000008
0.000007
0.000006
0.000009
0.000009
0.000011
0.000011
0.000009
0.000002
0.000008
0.000007
0.000006
0.000004
0.000387
0.000410
0.000432
0.000454
0.000474
0.000493
0.000512
0.000026
0.000028
0.000295
0.000285
0.000293
0.000351
0.000325
0.000451
0.000483
0.000511
0.000534
0.000556
0.000580
0.000602
0.000542
0.000571
0.000585
0.000598
0.000608
0.000634
0.000676
0.000530
0.000548
0.000564
0.000581
0.000597
0.000612
0.000628
0.000372
0.000319
0.000346
0.000228
0.000258
0.000286
0.000171
0.000131
0.000086
0.000196
0.000040
0.000079
0.000396
0.000420
0.000442
0.000464
0.000485
0.000504
0.000524
0.000022
0.000015
0.000016
0.000028
0.000027
0.000025
0.000024
0.000002
0.000000
0.000035
0.000033
0.000028
0.000030
0.000542
0.000560
0.000577
0.000594
0.000610
0.000626
0.000641
0.000657
0.000005
0.000004
0.000004
0.000003
0.000002
0.000001
0.000000
0.000008
0.000008
0.000009
0.000009
0.000009
0.000009
0.000008
0.000007
0.000006
0.000011
0.000013
0.000643
0.000658
0.000672
0.000687
0.000702
0.000716
0.000731
0.000746
0.000761
0.000011
0.000013
0.000012
0.000015
0.000010
0.000005
0.000006
0.000010
0.000008
0.000007
0.000009
0.000008
0.000011
0.000014
0.000624
0.000648
0.000683
0.000669
0.000695
0.000711
0.000728
0.000015
0.000015
0.000019
0.000017
0.000017
0.000017
0.000024
0.000374
0.000020
0.000528
0.000495
0.000575
0.000708
0.000627
0.000747
0.000711
0.000741
0.000761
0.000772
0.000792
0.000818
0.000832
0.000827
0.000837
0.000850
0.000859
0.000821
0.000897
0.000937
0.000747
0.000768
0.000785
0.000799
0.000813
0.000827
0.000841
0.000776
0.000792
0.000807
0.000824
0.000364
0.000339
0.000313
0.000283
0.000226
0.000255
0.000160
0.000121
0.000193
0.000073
0.000112
0.000388
0.000410
0.000432
0.000508
0.000453
0.000472
0.000490
0.000025
0.000020
0.000013
0.000014
0.000011
0.000018
0.000016
0.000014
0.000024
0.000023
0.000021
0.000009
0.000006
0.000003
0.000000
0.000068
0.000031
0.000025
0.000029
0.000027
0.000672
0.000687
0.000747
0.000732
0.000702
0.000717
0.000525
0.000541
0.000558
0.000575
0.000607
0.000591
0.000623
0.000637
0.000762
0.000777
0.000005
0.000005
0.000004
0.000003
0.000001
0.000000
0.000009
0.000010
0.000011
0.000011
0.000007
0.000010
0.000009
0.000008
0.000013
0.000015
0.000912
0.000932
0.000952
0.000973
0.000995
0.000855
0.000865
0.000868
0.000879
0.000896
0.000908
0.000917
0.000926
0.000938
0.000957
0.000976
0.000893
0.000840
0.000875
0.000857
0.000992
0.001006
0.000013
0.000014
0.000017
0.000018
0.000012
0.000008
0.000008
0.000009
0.000011
0.000010
0.000011
0.000013
0.000015
0.000015
0.000859
0.000883
0.000895
0.000902
0.000906
0.000923
0.000935
0.000016
0.000017
0.000018
0.000018
0.000362
0.000689
0.000204
0.000787
0.000856
0.001059
0.001061
0.001037
0.000970
0.001001
0.000987
0.001047
0.001077
0.001019
0.001065
0.001105
0.001070
0.001142
0.001131
0.001185
0.001170
0.000968
0.000988
0.001000
0.001013
0.001026
0.001039
0.001051
0.000793
0.000809
0.000825
0.000841
0.000858
0.000932
0.000912
0.000876
0.000894
0.000358
0.000331
0.000307
0.000280
0.000254
0.000225
0.000157
0.000196
0.000104
0.000138
0.000379
0.000401
0.000422
0.000476
0.000491
0.000441
0.000458
0.000448
0.000022
0.000018
0.000012
0.000010
0.000015
0.000013
0.000020
0.000019
0.000007
0.000003
0.000000
0.000101
0.000064
0.000028
0.000022
0.000024
0.000026
0.000666
0.000652
0.000725
0.000711
0.000696
0.000681
0.000507
0.000522
0.000556
0.000539
0.000589
0.000573
0.000604
0.000617
0.000576
0.000740
0.000755
0.000952
0.000972
0.000994
0.001016
0.001039
0.001063
0.000006
0.000005
0.000004
0.000003
0.000001
0.000000
0.000008
0.000011
0.000012
0.000013
0.000012
0.000009
0.000011
0.000010
0.000015
0.000018
0.000021
0.000010
0.001067
0.001080
0.001017
0.001041
0.001065
0.001099
0.001118
0.001132
0.001149
0.001090
0.001116
0.001144
0.001172
0.001201
0.001232
0.001263
0.001296
0.001064
0.001067
0.001051
0.001062
0.001088
0.001101
0.001090
0.001098
0.001116
0.001136
0.001164
0.001055
0.001022
0.001040
0.001173
0.001182
0.000015
0.000024
0.000017
0.000019
0.000021
0.000013
0.000015
0.000011
0.000011
0.000013
0.000013
0.000014
0.000015
0.000017
0.001095
0.001121
0.001085
0.001154
0.001098
0.001152
0.001162
0.000018
0.000020
0.000020
0.000732
0.001374
0.001257
0.001488
0.001433
0.001747
0.001944
0.001249
0.001225
0.001239
0.001327
0.001371
0.001298
0.001280
0.001418
0.001512
0.001515
0.001506
0.001198
0.001201
0.001210
0.001222
0.001236
0.001247
0.001256
0.000771
0.000787
0.000803
0.000820
0.000836
0.000909
0.000891
0.000872
0.000854
0.000345
0.000329
0.000298
0.000259
0.000224
0.000180
0.000142
0.000414
0.000369
0.000392
0.000336
0.000477
0.000456
0.000423
0.000425
0.000019
0.000018
0.000015
0.000010
0.000013
0.000016
0.000015
0.000006
0.000003
0.000000
0.000135
0.000096
0.000059
0.000025
0.000021
0.000023
0.000646
0.000632
0.000602
0.000704
0.000690
0.000675
0.000660
0.000482
0.000508
0.000542
0.000517
0.000552
0.000582
0.000550
0.000719
0.000734
0.000688
0.001358
0.001258
0.001290
0.001323
0.001088
0.001113
0.001140
0.001227
0.001168
0.001197
0.001196
0.000929
0.000949
0.000991
0.000970
0.001037
0.001013
0.000000
0.000007
0.000006
0.000005
0.000003
0.000002
0.000009
0.000014
0.000014
0.000015
0.000013
0.000012
0.000013
0.000017
0.000020
0.000023
0.000027
0.000013
0.000011
0.001229
0.001230
0.001240
0.001173
0.001198
0.001221
0.001267
0.001285
0.001284
0.001299
0.001242
0.001261
0.001282
0.001309
0.001330
0.001365
0.001401
0.001339
0.001368
0.001396
0.001422
0.001438
0.000032
0.000030
0.001282
0.001266
0.001219
0.001264
0.001291
0.001304
0.001240
0.001290
0.001271
0.001338
0.001340
0.001223
0.001203
0.001346
0.001340
0.001378
0.000017
0.000027
0.000024
0.000020
0.000022
0.000015
0.000016
0.000018
0.000013
0.000014
0.000015
0.000015
0.000015
0.000017
0.000019
0.001356
0.001327
0.001320
0.001417
0.001326
0.001426
0.001435
0.000021
0.000023
0.000967
0.001874
0.001823
0.001707
0.002344
0.002426
0.001535
0.001582
0.001651
0.001602
0.001958
0.001889
0.002001
0.001930
0.001437
0.001381
0.001434
0.001407
0.001469
0.001426
0.001504
0.001477
0.001517
0.001557
0.001643
0.001600
0.001687
0.001733
0.001394
0.001430
0.001469
0.001508
0.000748
0.000715
0.000764
0.000784
0.000797
0.000814
0.000885
0.000869
0.000850
0.000831
0.000307
0.000271
0.000227
0.000176
0.000386
0.000360
0.000329
0.000308
0.000449
0.000428
0.000388
0.000403
0.000440
0.000017
0.000016
0.000014
0.000012
0.000009
0.000013
0.000012
0.000006
0.000003
0.000000
0.000161
0.000127
0.000087
0.000054
0.000021
0.000019
0.000629
0.000606
0.000572
0.000658
0.000665
0.000635
0.000472
0.000514
0.000485
0.000524
0.000543
0.000523
0.000692
0.000659
0.000681
0.001323
0.001290
0.001226
0.001258
0.001061
0.001086
0.001112
0.001166
0.001138
0.001163
0.001135
0.000905
0.000926
0.000860
0.000965
0.000945
0.001010
0.000987
0.000000
0.000002
0.000008
0.000006
0.000005
0.000004
0.000010
0.000034
0.000017
0.000017
0.000015
0.000014
0.000020
0.000023
0.000026
0.000030
0.000016
0.000014
0.000012
0.001779
0.001827
0.001876
0.001926
0.001977
0.002028
0.001374
0.001425
0.001418
0.001329
0.001356
0.001374
0.001455
0.001456
0.001411
0.001466
0.001385
0.001396
0.001414
0.001447
0.001479
0.001450
0.001510
0.001477
0.001503
0.001539
0.001526
0.001774
0.001734
0.001692
0.001652
0.001544
0.001616
0.001581
0.001817
0.000038
0.000035
0.000034
0.000032
0.000030
0.000042
0.001524
0.001458
0.001434
0.001537
0.001491
0.001501
0.001538
0.001495
0.001432
0.001539
0.001573
0.000020
0.000026
0.000023
0.000020
0.000017
0.000019
0.000016
0.000017
0.000018
0.000020
0.000022
0.001624
0.001650
0.001667
0.001737
0.000025
0.001108
0.002471
0.001681
0.002368
0.003187
0.002049
0.001972
0.002093
0.002001
0.002402
0.002481
0.001657
0.001694
0.001722
0.001796
0.002081
0.002135
0.002190
0.001548
0.001590
0.001722
0.001633
0.001677
0.001769
0.001816
0.001865
0.001915
0.001965
0.002017
0.002070
0.002124
0.001357
0.001392
0.001466
0.001429
0.000719
0.000750
0.000756
0.000771
0.000797
0.000840
0.000833
0.000802
0.000265
0.000207
0.000344
0.000296
0.000404
0.000365
0.000401
0.000429
0.000015
0.000013
0.000012
0.000009
0.000010
0.000005
0.000003
0.000000
0.000164
0.000117
0.000082
0.000048
0.000017
0.000539
0.000595
0.000561
0.000625
0.000634
0.000590
0.000443
0.000482
0.000506
0.000649
0.000626
0.000641
0.000666
0.001255
0.001286
0.001225
0.001193
0.001034
0.001059
0.001083
0.001108
0.000988
0.001082
0.001137
0.001092
0.000817
0.000877
0.000905
0.000833
0.000943
0.000911
0.000953
0.000000
0.000002
0.000004
0.000008
0.000006
0.000005
0.000000
0.000010
0.000037
0.000044
0.000041
0.000034
0.000019
0.000019
0.000017
0.000023
0.000027
0.000031
0.000019
0.000017
0.000015
0.000013
0.000053
0.000058
0.001861
0.001907
0.001952
0.001997
0.002215
0.002173
0.002129
0.002044
0.002089
0.001552
0.001642
0.001641
0.001493
0.001520
0.001516
0.001655
0.001619
0.001607
0.001522
0.001513
0.001562
0.001591
0.001586
0.001564
0.001613
0.001614
0.001637
0.001645
0.001667
0.001856
0.001823
0.001784
0.001743
0.001707
0.001652
0.001684
0.001898
0.001926
0.002261
0.002304
0.000038
0.000035
0.000032
0.000029
0.000049
0.000046
0.000043
0.000053
0.000058
0.000589
0.001783
0.001741
0.001803
0.001809
0.001806
0.001752
0.001760
0.001839
0.000023
0.000026
0.000022
0.000020
0.000019
0.000021
0.000023
0.000026
0.002120
0.002020
0.002139
0.002045
0.000992
0.000984
0.003200
0.002048
0.002967
0.003045
0.002507
0.002530
0.003204
0.003203
0.002134
0.002034
0.002149
0.002077
0.002247
0.002304
0.002366
0.002375
0.002179
0.002235
0.002292
0.001507
0.001547
0.001675
0.001631
0.001588
0.001721
0.001765
0.001856
0.001810
0.001905
0.001956
0.002007
0.002060
0.001317
0.001352
0.001424
0.001387
0.000704
0.000724
0.000749
0.000794
0.000759
0.000233
0.000295
0.000346
0.000383
0.000011
0.000013
0.000009
0.000007
0.000006
0.000003
0.000000
0.000180
0.000126
0.000075
0.000040
0.000022
0.000514
0.000547
0.000591
0.000546
0.000407
0.000447
0.000596
0.000611
0.000650
0.001250
0.001194
0.001204
0.001150
0.001035
0.000999
0.001044
0.000942
0.001029
0.001083
0.001016
0.000776
0.000796
0.000853
0.000804
0.000898
0.000862
0.000908
0.000002
0.000004
0.000005
0.000009
0.000007
0.000000
0.000002
0.000011
0.000038
0.000045
0.000042
0.000049
0.000034
0.000022
0.000021
0.000026
0.000030
0.000022
0.000020
0.000019
0.000015
0.000017
0.000054
0.000088
0.000068
0.000059
0.001944
0.001983
0.002024
0.002064
0.002232
0.002202
0.002167
0.002143
0.002111
0.001814
0.001872
0.001685
0.001689
0.001639
0.001878
0.001843
0.001675
0.001727
0.001716
0.001678
0.001692
0.001728
0.001760
0.001750
0.001766
0.001803
0.001918
0.001872
0.001946
0.001845
0.001788
0.001790
0.001765
0.001983
0.001983
0.002386
0.002347
0.002331
0.002267
0.000039
0.000036
0.000033
0.000030
0.000050
0.000044
0.000047
0.000054
0.000529
0.000578
0.001006
0.001011
0.002155
0.002068
0.002155
0.002080
0.002148
0.002066
0.002161
0.002096
0.000026
0.000023
0.000022
0.000024
0.000026
0.002538
0.002526
0.001780
0.001450
0.003015
0.002739
0.002852
0.003199
0.003191
0.002995
0.003005
0.002523
0.002537
0.002386
0.002350
0.002406
0.002433
0.002444
0.002113
0.002166
0.002217
0.001466
0.001498
0.001628
0.001582
0.001538
0.001670
0.001706
0.001793
0.001748
0.001891
0.001840
0.001940
0.001990
0.001263
0.001318
0.001391
0.001332
0.000661
0.000695
0.000701
0.000733
0.000217
0.000258
0.000297
0.000326
0.000006
0.000005
0.000005
0.000002
0.000000
0.000154
0.000103
0.000051
0.000002
0.000483
0.000516
0.000356
0.000386
0.000538
0.000587
0.001181
0.001133
0.001132
0.001084
0.000988
0.000950
0.000985
0.000906
0.000889
0.000953
0.001014
0.000941
0.000746
0.000783
0.000846
0.000004
0.000006
0.000008
0.000010
0.000000
0.000002
0.000005
0.000012
0.000037
0.000041
0.000045
0.000049
0.000016
0.000034
0.000025
0.000030
0.000025
0.000023
0.000021
0.000018
0.000101
0.000054
0.000087
0.000076
0.000065
0.000059
0.002380
0.002373
0.002033
0.002051
0.002106
0.002126
0.002227
0.002196
0.002173
0.002171
0.002090
0.001888
0.001861
0.002168
0.002098
0.001910
0.001890
0.001794
0.001828
0.001864
0.001903
0.001930
0.002026
0.001937
0.002012
0.001903
0.001888
0.002082
0.002135
0.002338
0.002328
0.002304
0.002280
0.002240
0.000041
0.000046
0.000037
0.000033
0.000030
0.000109
0.000116
0.000121
0.000051
0.000049
0.000543
0.000572
0.001050
0.001034
0.001015
0.001037
0.002530
0.002515
0.002489
0.002493
0.000027
0.000025
0.000026
0.001172
0.003180
0.003165
0.002514
0.002295
0.002802
0.002608
0.003004
0.003004
0.002820
0.002863
0.003146
0.003123
0.002445
0.002439
0.002427
0.002268
0.002300
0.002320
0.002326
0.002043
0.002086
0.002134
0.001409
0.001440
0.001584
0.001530
0.001485
0.001652
0.001588
0.001737
0.001665
0.001833
0.001754
0.001935
0.001850
0.001157
0.001235
0.001319
0.001241
0.000625
0.000656
0.000178
0.000227
0.000232
0.000280
0.000003
0.000002
0.000000
0.000001
0.000094
0.000001
0.000413
0.000439
0.000277
0.000327
0.000467
0.000501
0.001084
0.001037
0.000912
0.000845
0.000894
0.000925
0.000841
0.000677
0.000736
0.002412
0.000007
0.000010
0.000007
0.000000
0.000002
0.000005
0.000013
0.000039
0.000044
0.000049
0.000017
0.000020
0.000034
0.000029
0.000038
0.000028
0.000025
0.000022
0.000097
0.000104
0.000086
0.000055
0.000077
0.000068
0.000061
0.000110
0.000115
0.002316
0.002283
0.002358
0.002322
0.002342
0.002147
0.002203
0.002234
0.002239
0.002477
0.002160
0.002097
0.002453
0.002155
0.002106
0.001960
0.002010
0.002163
0.002121
0.002111
0.002047
0.002032
0.002227
0.002236
0.002234
0.002274
0.002248
0.002228
0.001224
0.000041
0.001287
0.000037
0.000033
0.000030
0.000125
0.000129
0.001018
0.001021
0.001024
0.001162
0.001103
0.001073
0.001053
0.003096
0.003065
0.003029
0.002988
0.000027
0.001041
0.002089
0.002995
0.002968
0.002873
0.002397
0.002216
0.002641
0.002488
0.002804
0.002690
0.002935
0.002909
0.002325
0.002321
0.002290
0.002309
0.002164
0.002190
0.002208
0.002205
0.001953
0.001996
0.002051
0.001336
0.001402
0.001482
0.001412
0.001550
0.001466
0.001630
0.001538
0.001718
0.001621
0.001820
0.001709
0.001054
0.001121
0.001191
0.000531
0.000559
0.000136
0.000170
0.000001
0.000000
0.000001
0.000000
0.000319
0.000374
0.000198
0.000364
0.000422
0.000948
0.000899
0.000783
0.000811
0.000755
0.000589
0.000621
0.002392
0.002267
0.000010
0.000009
0.000007
0.000000
0.000003
0.000005
0.000014
0.000044
0.000050
0.000018
0.000021
0.000024
0.000034
0.000039
0.000031
0.000027
0.000094
0.000100
0.000085
0.000078
0.000056
0.000070
0.000063
0.000105
0.000132
0.000119
0.000109
0.000122
0.002272
0.002262
0.002233
0.002293
0.002240
0.002286
0.002317
0.002303
0.002319
0.002289
0.002941
0.002419
0.002888
0.002406
0.002174
0.002149
0.002384
0.002207
0.002200
0.002462
0.002327
0.002250
0.002188
0.002209
0.002191
0.000904
0.001208
0.001257
0.001027
0.000712
0.001298
0.000880
0.000800
0.000849
0.000135
0.001027
0.001028
0.001057
0.001057
0.001048
0.001144
0.001094
0.001200
0.002890
0.002854
0.002772
0.002773
0.001899
0.002030
0.002814
0.002798
0.002726
0.002300
0.002486
0.002580
0.002721
0.002742
0.002204
0.002205
0.002164
0.002188
0.002152
0.002027
0.002093
0.002078
0.002071
0.001830
0.001913
0.001848
0.001264
0.001319
0.001382
0.001455
0.001533
0.001613
0.000959
0.000980
0.001075
0.000826
0.000413
0.000476
0.000000
0.000000
0.000000
0.000000
0.000000
0.000227
0.000000
0.000258
0.000767
0.000656
0.000674
0.000456
0.000525
0.002366
0.002213
0.000012
0.000010
0.000007
0.000000
0.000003
0.000005
0.000015
0.000019
0.000044
0.000050
0.000023
0.000026
0.000028
0.000038
0.000032
0.000024
0.000091
0.000096
0.000084
0.000077
0.000072
0.000057
0.000064
0.000137
0.000139
0.000098
0.000125
0.000127
0.000113
0.000104
0.000115
0.000140
0.000000
0.002212
0.002175
0.002237
0.002184
0.002247
0.002275
0.002446
0.002397
0.002320
0.002754
0.002828
0.002705
0.002760
0.002362
0.002683
0.002379
0.002359
0.002357
0.002377
0.002195
0.002150
0.002137
0.002120
0.001732
0.001272
0.001378
0.001339
0.001474
0.001592
0.000141
0.001030
0.001030
0.001030
0.001029
0.001057
0.001063
0.001101
0.001083
0.001156
0.001243
0.002636
0.002718
0.002689
0.002630
0.002595
0.002583
0.001830
0.001911
0.002103
0.002571
0.002287
0.002551
0.002067
0.002101
0.002033
0.002050
0.002036
0.001923
0.001970
0.001933
0.001685
0.001681
0.001070
0.001122
0.001183
0.001248
0.001308
0.001358
0.000789
0.000828
0.000645
0.000287
0.000000
0.000000
0.000000
0.000000
0.000000
0.000000
0.000543
0.000498
0.000301
0.002330
0.002151
0.000013
0.000010
0.000008
0.000003
0.000006
0.000003
0.000016
0.000020
0.000044
0.000050
0.000028
0.000032
0.000039
0.000025
0.000030
0.000088
0.000077
0.000068
0.000058
0.000129
0.000130
0.000090
0.000097
0.000120
0.000118
0.000105
0.000110
0.000131
0.000132
0.000000
0.002138
0.002080
0.002182
0.002138
0.002184
0.002219
0.002339
0.002278
0.002197
0.002583
0.002637
0.002558
0.002573
0.002593
0.002511
0.002291
0.002482
0.002320
0.002099
0.002117
0.002078
0.002071
0.001673
0.001329
0.001427
0.001541
0.000141
0.000141
0.001028
0.001063
0.001053
0.001062
0.001058
0.001106
0.001098
0.001165
0.001305
0.001229
0.002477
0.002484
0.002414
0.001750
0.001814
0.002044
0.002243
0.001912
0.001943
0.001897
0.001926
0.001832
0.001750
0.001798
0.001404
0.001429
0.000803
0.000947
0.000909
0.001056
0.001011
0.001142
0.000543
0.000471
0.000391
0.000000
0.000000
0.000000
0.000000
0.000269
0.000000
0.002278
0.002055
0.000012
0.000009
0.000006
0.000009