# vtk DataFile Version 2.0
vtk title
ASCII
DATASET UNSTRUCTURED_GRID

POINTS 1848 float
0.014444 -0.047617 0.000000
0.019134 -0.046194 0.000000
0.023456 -0.043884 0.000000
0.027779 -0.041573 0.000000
0.031567 -0.038464 0.000000
0.035355 -0.035355 0.000000
0.038464 -0.031567 0.000000
0.009755 -0.049039 0.000000
0.004877 -0.049520 0.000000
0.000000 -0.050000 0.000000
0.008664 -0.044238 0.000000
0.013123 -0.043183 0.000000
0.019472 -0.040486 0.000000
0.025486 -0.038478 0.000000
0.027272 -0.034844 0.000000
0.031206 -0.033787 0.000000
0.041573 -0.027779 0.000000
0.035204 -0.028900 0.000000
0.043884 -0.023456 0.000000
0.004568 -0.045183 0.000000
0.000000 -0.045000 0.000000
0.007350 -0.039319 0.000000
0.014450 -0.037299 0.000000
0.021057 -0.034009 0.000000
0.026948 -0.029560 0.000000
0.038347 -0.023800 0.000000
0.031921 -0.024105 0.000000
0.041369 -0.020308 0.000000
0.046194 -0.019134 0.000000
0.047617 -0.014444 0.000000
0.000000 -0.040000 0.000000
0.004187 -0.035252 0.000000
0.009187 -0.033460 0.000000
0.025632 -0.011740 0.000000
0.025009 -0.012028 0.000000
0.025858 -0.012852 0.000000
0.015184 -0.030532 0.000000
0.020654 -0.027076 0.000000
0.025409 -0.022917 0.000000
0.029120 -0.017633 0.000000
0.027887 -0.013353 0.000000
0.035807 -0.017830 0.000000
0.042073 -0.015879 0.000000
0.044376 -0.011877 0.000000
0.049039 -0.009755 0.000000
0.049520 -0.004877 0.000000
0.004396 -0.030140 0.000000
0.000000 -0.033343 0.000000
0.004366 -0.007899 0.000000
0.004501 -0.006371 0.000000
0.004515 -0.006929 0.000000
0.009542 -0.026702 0.000000
0.026711 -0.011433 0.000000
0.024537 -0.012673 0.000000
0.025679 -0.011076 0.000000
0.024449 -0.011941 0.000000
0.025164 -0.011395 0.000000
0.024680 -0.011590 0.000000
0.024465 -0.013832 0.000000
0.025574 -0.015112 0.000000
0.023933 -0.018169 0.000000
0.015563 -0.024485 0.000000
0.019760 -0.020950 0.000000
0.028528 -0.010939 0.000000
0.031792 -0.012165 0.000000
0.038473 -0.010947 0.000000
0.044131 -0.007477 0.000000
0.045516 -0.003019 0.000000
0.050000 -0.000000 0.000000
0.004506 -0.006646 0.000000
0.004455 -0.006515 0.000000
0.004460 -0.006799 0.000000
0.004388 -0.006949 0.000000
0.004361 -0.007095 0.000000
0.004498 -0.006093 0.000000
0.004465 -0.006237 0.000000
0.004371 -0.006380 0.000000
0.003885 -0.024911 0.000000
0.000000 -0.027179 0.000000
0.004197 -0.008089 0.000000
0.004312 -0.007627 0.000000
0.004328 -0.007259 0.000000
0.004332 -0.007417 0.000000
0.004074 -0.007770 0.000000
0.004608 -0.006293 0.000000
0.004607 -0.006155 0.000000
0.004605 -0.006015 0.000000
0.004603 -0.005879 0.000000
0.004601 -0.005595 0.000000
0.004601 -0.005733 0.000000
0.004601 -0.005451 0.000000
0.004601 -0.005316 0.000000
0.004494 -0.007043 0.000000
0.004478 -0.007184 0.000000
0.004468 -0.007333 0.000000
0.004410 -0.008117 0.000000
0.004467 -0.007486 0.000000
0.004508 -0.007993 0.000000
0.004520 -0.007615 0.000000
0.004492 -0.007753 0.000000
0.004540 -0.007879 0.000000
0.004606 -0.006437 0.000000
0.004609 -0.006569 0.000000
0.004616 -0.006985 0.000000
0.004606 -0.006719 0.000000
0.004611 -0.006851 0.000000
0.004355 -0.008300 0.000000
0.011428 -0.021661 0.000000
0.007149 -0.021728 0.000000
0.027326 -0.009771 0.000000
0.026335 -0.009306 0.000000
0.023155 -0.013634 0.000000
0.023696 -0.012927 0.000000
0.026067 -0.010303 0.000000
0.023882 -0.012145 0.000000
0.025202 -0.010679 0.000000
0.024158 -0.011513 0.000000
0.024619 -0.011074 0.000000
0.023032 -0.015245 0.000000
0.022094 -0.013861 0.000000
0.020567 -0.016856 0.000000
0.015350 -0.020133 0.000000
0.017848 -0.017770 0.000000
0.029460 -0.008390 0.000000
0.024482 0.010717 0.000000
0.025599 0.008879 0.000000
0.023950 0.011000 0.000000
0.023500 0.011000 0.000000
0.024481 0.011206 0.000000
0.033272 -0.006064 0.000000
0.030350 -0.002381 0.000000
0.029807 0.000341 0.000000
0.049520 0.004877 0.000000
0.049039 0.009755 0.000000
0.039829 -0.003691 0.000000
0.044529 0.001791 0.000000
0.024966 0.011033 0.000000
0.025115 0.009851 0.000000
0.025121 0.010480 0.000000
0.025555 0.009448 0.000000
0.026199 0.008592 0.000000
0.026034 0.009236 0.000000
0.004489 -0.005811 0.000000
0.004451 -0.005958 0.000000
0.004608 -0.004616 0.000000
0.004602 -0.004764 0.000000
0.004603 -0.004896 0.000000
0.004604 -0.005042 0.000000
0.004602 -0.005175 0.000000
0.004485 -0.005524 0.000000
0.004444 -0.005667 0.000000
0.004488 -0.005248 0.000000
0.004448 -0.005384 0.000000
0.004502 -0.004412 0.000000
0.004348 -0.006672 0.000000
0.004311 -0.006505 0.000000
0.004245 -0.006829 0.000000
0.004257 -0.006997 0.000000
0.004223 -0.007141 0.000000
0.004359 -0.006109 0.000000
0.004310 -0.006259 0.000000
0.004184 -0.006391 0.000000
0.004172 -0.008614 0.000000
0.004066 -0.008300 0.000000
0.004001 -0.008872 0.000000
0.005652 -0.018332 0.000000
0.003207 -0.020462 0.000000
0.000000 -0.022196 0.000000
0.003872 -0.008014 0.000000
0.004082 -0.007380 0.000000
0.003756 -0.007642 0.000000
0.004609 -0.004481 0.000000
0.004609 -0.004339 0.000000
0.004735 -0.004678 0.000000
0.004735 -0.004539 0.000000
0.004735 -0.006210 0.000000
0.004735 -0.006350 0.000000
0.004735 -0.005514 0.000000
0.004735 -0.006071 0.000000
0.004735 -0.005932 0.000000
0.004735 -0.005792 0.000000
0.004735 -0.005653 0.000000
0.004835 -0.006139 0.000000
0.004735 -0.005375 0.000000
0.004735 -0.004817 0.000000
0.004735 -0.005235 0.000000
0.004735 -0.005096 0.000000
0.004735 -0.004957 0.000000
0.004835 -0.005437 0.000000
0.004572 -0.008300 0.000000
0.004666 -0.008219 0.000000
0.004610 -0.007117 0.000000
0.004604 -0.007257 0.000000
0.004598 -0.007398 0.000000
0.004589 -0.008116 0.000000
0.004613 -0.007534 0.000000
0.004623 -0.007951 0.000000
0.004620 -0.007677 0.000000
0.004626 -0.007814 0.000000
0.004735 -0.007046 0.000000
0.004735 -0.006489 0.000000
0.004735 -0.006628 0.000000
0.004735 -0.006907 0.000000
0.004735 -0.006768 0.000000
0.004436 -0.008578 0.000000
0.004628 -0.008465 0.000000
0.012713 -0.018132 0.000000
0.009274 -0.018195 0.000000
0.007130 -0.016084 0.000000
0.005026 -0.012341 0.000000
0.004551 -0.011754 0.000000
0.004206 -0.010373 0.000000
0.004363 -0.008994 0.000000
0.004312 -0.009644 0.000000
0.026857 -0.008251 0.000000
0.025597 -0.009432 0.000000
0.025827 -0.008773 0.000000
0.022806 -0.012952 0.000000
0.023255 -0.012418 0.000000
0.022017 -0.012726 0.000000
0.023254 -0.011916 0.000000
0.025160 -0.010012 0.000000
0.023578 -0.011438 0.000000
0.024568 -0.010428 0.000000
0.023950 -0.010800 0.000000
0.024999 -0.009437 0.000000
0.021027 -0.014817 0.000000
0.019750 -0.015149 0.000000
0.021314 -0.013063 0.000000
0.020945 -0.013754 0.000000
0.018609 -0.015870 0.000000
0.018872 -0.014635 0.000000
0.017168 -0.015846 0.000000
0.015428 -0.016709 0.000000
0.027314 -0.006291 0.000000
0.029216 -0.005135 0.000000
0.026310 -0.005616 0.000000
0.028076 -0.003054 0.000000
0.027958 -0.000631 0.000000
0.025683 0.008221 0.000000
0.026515 0.007627 0.000000
0.025560 0.007619 0.000000
0.028078 0.002014 0.000000
0.027475 0.006339 0.000000
0.027589 0.004433 0.000000
0.024522 0.010154 0.000000
0.023950 0.010479 0.000000
0.023500 0.010496 0.000000
0.025069 0.008571 0.000000
0.025051 0.009205 0.000000
0.024515 0.009536 0.000000
0.023052 0.010793 0.000000
0.024463 0.011569 0.000000
0.023731 0.011427 0.000000
0.024130 0.011469 0.000000
0.023091 0.011218 0.000000
0.023345 0.011483 0.000000
0.022672 0.011167 0.000000
0.024859 0.011484 0.000000
0.033781 0.000262 0.000000
0.030174 0.003515 0.000000
0.029256 0.006095 0.000000
0.027907 0.007571 0.000000
0.043884 0.023456 0.000000
0.047617 0.014444 0.000000
0.046194 0.019134 0.000000
0.044341 0.008813 0.000000
0.039829 0.003691 0.000000
0.025531 0.010929 0.000000
0.025324 0.011380 0.000000
0.026109 0.010194 0.000000
0.027164 0.009000 0.000000
0.004331 -0.005820 0.000000
0.004270 -0.005976 0.000000
0.004498 -0.004688 0.000000
0.004462 -0.004548 0.000000
0.004491 -0.004970 0.000000
0.004452 -0.004828 0.000000
0.004450 -0.005112 0.000000
0.004328 -0.005523 0.000000
0.004249 -0.005672 0.000000
0.004340 -0.005251 0.000000
0.004271 -0.005371 0.000000
0.004498 -0.004143 0.000000
0.004464 -0.004278 0.000000
0.004368 -0.004412 0.000000
0.004099 -0.006637 0.000000
0.004016 -0.006981 0.000000
0.004131 -0.006148 0.000000
0.003988 -0.006388 0.000000
0.003865 -0.008626 0.000000
0.003683 -0.008300 0.000000
0.003903 -0.009299 0.000000
0.003722 -0.008956 0.000000
0.003729 -0.009940 0.000000
0.004784 -0.013475 0.000000
0.004319 -0.012443 0.000000
0.004015 -0.011187 0.000000
0.003889 -0.011890 0.000000
0.003479 -0.010683 0.000000
0.004336 -0.015296 0.000000
0.003718 -0.013935 0.000000
0.002575 -0.017124 0.000000
0.000000 -0.018459 0.000000
0.003465 -0.007900 0.000000
0.003647 -0.007200 0.000000
0.003397 -0.007479 0.000000
0.004606 -0.004208 0.000000
0.004605 -0.004064 0.000000
0.004603 -0.003932 0.000000
0.004605 -0.003783 0.000000
0.004604 -0.003649 0.000000
0.004606 -0.003503 0.000000
0.004607 -0.003369 0.000000
0.004611 -0.003222 0.000000
0.004735 -0.004399 0.000000
0.004735 -0.004260 0.000000
0.004835 -0.004736 0.000000
0.004835 -0.004596 0.000000
0.004835 -0.004455 0.000000
0.004835 -0.006280 0.000000
0.004835 -0.006437 0.000000
0.004949 -0.006215 0.000000
0.004835 -0.005578 0.000000
0.004835 -0.005999 0.000000
0.004835 -0.005858 0.000000
0.004835 -0.005718 0.000000
0.004952 -0.006078 0.000000
0.004968 -0.005517 0.000000
0.004835 -0.005297 0.000000
0.004835 -0.004876 0.000000
0.004835 -0.005157 0.000000
0.004835 -0.005017 0.000000
0.004967 -0.005374 0.000000
0.004735 -0.008300 0.000000
0.004735 -0.008161 0.000000
0.004735 -0.007186 0.000000
0.004735 -0.007464 0.000000
0.004735 -0.007325 0.000000
0.004735 -0.008021 0.000000
0.004735 -0.007603 0.000000
0.004735 -0.007882 0.000000
0.004735 -0.007743 0.000000
0.004835 -0.007098 0.000000
0.004835 -0.006622 0.000000
0.004835 -0.006840 0.000000
0.004835 -0.008687 0.000000
0.013292 -0.015739 0.000000
0.007923 -0.014612 0.000000
0.011270 -0.016078 0.000000
0.009266 -0.015586 0.000000
0.006352 -0.014113 0.000000
0.005802 -0.012698 0.000000
0.005438 -0.011814 0.000000
0.004835 -0.010800 0.000000
[...]
POINT_DATA 1848
SCALARS A double 1
LOOKUP_TABLE Atable
0.000000
0.000000
0.000000
0.000000
0.000000
0.000000
0.000000
0.000000
0.000000
0.000000
0.000000
0.000000
0.000000
0.000000
0.000000
0.000000
0.000000
0.000000
0.000000
0.000000
0.000000
0.000000
0.000000
0.000001
0.000001
0.000001
0.000001
0.000001
0.000000
0.000000
0.000000
0.000000
0.000000
0.000005
0.000005
0.000005
0.000001
0.000001
0.000002
0.000003
0.000004
0.000002
0.000001
0.000001
0.000000
0.000000
0.000000
0.000000
0.000003
0.000007
0.000006
0.000001
0.000005
0.000005
0.000006
0.000005
0.000006
0.000006
0.000004
0.000004
0.000003
0.000001
0.000002
0.000005
0.000004
0.000002
0.000001
0.000001
0.000000
0.000007
0.000006
0.000006
0.000006
0.000005
0.000007
0.000007
0.000006
0.000000
0.000000
0.000002
0.000004
0.000005
0.000005
0.000003
0.000007
0.000007
0.000007
0.000008
0.000008
0.000008
0.000008
0.000008
0.000006
0.000006
0.000005
0.000003
0.000005
0.000003
0.000005
0.000004
0.000004
0.000007
0.000007
0.000007
0.000007
0.000007
0.000002
0.000001
0.000001
0.000006
0.000007
0.000004
0.000005
0.000007
0.000005
0.000007
0.000006
0.000006
0.000004
0.000004
0.000003
0.000002
0.000003
0.000006
0.000004
0.000006
0.000004
0.000003
0.000004
0.000004
0.000006
0.000007
0.000000
0.000000
0.000002
0.000001
0.000004
0.000005
0.000005
0.000005
0.000006
0.000005
0.000007
0.000007
0.000008
0.000008
0.000008
0.000008
0.000008
0.000007
0.000007
0.000007
0.000007
0.000007
0.000006
0.000006
0.000005
0.000005
0.000005
0.000006
0.000006
0.000006
0.000002
0.000002
0.000001
0.000001
0.000000
0.000000
0.000002
0.000004
0.000003
0.000008
0.000008
0.000008
0.000008
0.000008
0.000008
0.000008
0.000008
0.000008
0.000008
0.000008
0.000008
0.000008
0.000008
0.000008
0.000008
0.000008
0.000008
0.000002
0.000003
0.000006
0.000006
0.000006
0.000003
0.000005
0.000004
0.000005
0.000004
0.000007
0.000008
0.000008
0.000007
0.000008
0.000002
0.000002
0.000002
0.000002
0.000001
0.000001
0.000001
0.000001
0.000002
0.000001
0.000008
0.000008
0.000008
0.000005
0.000005
0.000005
0.000005
0.000008
0.000006
0.000007
0.000007
0.000009
0.000004
0.000003
0.000004
0.000004
0.000003
0.000003
0.000003
0.000003
0.000008
0.000007
0.000010
0.000008
0.000009
0.000007
0.000007
0.000007
0.000008
0.000007
0.000008
0.000005
0.000005
0.000003
0.000007
0.000006
0.000006
0.000003
0.000003
0.000003
0.000003
0.000003
0.000003
0.000003
0.000004
0.000004
0.000006
0.000006
0.000006
0.000000
0.000000
0.000000
0.000001
0.000002
0.000004
0.000004
0.000005
0.000005
0.000007
0.000006
0.000007
0.000007
0.000007
0.000007
0.000007
0.000007
0.000006
0.000007
0.000006
0.000007
0.000007
0.000007
0.000005
0.000005
0.000006
0.000005
0.000001
0.000001
0.000001
0.000001
0.000001
0.000001
0.000001
0.000001
0.000001
0.000001
0.000001
0.000001
0.000000
0.000000
0.000002
0.000003
0.000003
0.000008
0.000008
0.000008
0.000008
0.000008
0.000008
0.000008
0.000008
0.000008
0.000008
0.000008
0.000008
0.000008
0.000008
0.000008
0.000118
0.000008
0.000008
0.000008
0.000008
0.000121
0.000135
0.000008
0.000008
0.000008
0.000008
0.000133
0.000003
0.000003
0.000007
0.000006
0.000006
0.000004
0.000006
0.000005
0.000005
0.000007
0.000008
0.000007
0.000002
0.000003
0.000002
0.000002
0.000002
0.000002
0.000002
0.000002
0.000001
0.000001
0.000002
0.000009
0.000009
0.000010
0.000010
0.000011
0.000009
0.000010
0.000005
0.000005
0.000005
0.000005
0.000009
0.000006
0.000009
0.000214
0.000010
0.000004
0.000004
0.000003
0.000004
0.000003
0.000003
0.000011
0.000009
0.000010
0.000010
0.000010
0.000011
0.000010
0.000008
0.000007
0.000008
0.000008
0.000010
0.000009
0.000009
0.000008
0.000009
0.000005
0.000003
0.000003
0.000008
0.000007
0.000007
0.000003
0.000003
0.000003
0.000003
0.000003
0.000003
0.000003
0.000003
0.000003
0.000003
0.000000
0.000000
0.000004
0.000004
0.000000
0.000001
0.000002
0.000004
0.000004
0.000000
0.000000
0.000000
0.000000
0.000000
0.000000
0.000000
0.000000
0.000000
0.000006
0.000007
0.000007
0.000007
0.000007
0.000007
0.000006
0.000006
0.000007
0.000007
0.000007
0.000007
0.000007
0.000007
0.000006
0.000007
0.000007
0.000008
0.000007
0.000004
0.000005
0.000004
0.000001
0.000001
0.000001
0.000001
0.000001
0.000001
0.000001
0.000000
0.000000
0.000002
0.000003
0.000008
0.000008
0.000008
0.000008
0.000008
0.000008
0.000008
0.000008
0.000008
0.000008
0.000008
0.000008
0.000115
0.000112
0.000115
0.000122
0.000129
0.000150
0.000214
0.000226
0.000136
0.000129
0.000135
0.000237
0.000257
0.000247
0.000136
0.000125
0.000139
0.000252
0.000204
0.000003
0.000006
0.000005
0.000243
0.000223
0.000189
0.000384
0.000376
0.000003
0.000003
0.000002
0.000002
0.000003
0.000002
0.000002
0.000002
0.000189
0.000535
0.000005
0.000005
0.000010
0.000011
0.000011
0.000012
0.000012
0.000011
0.000011
0.000005
0.000005
0.000006
0.000005
0.000010
0.000266
0.000595
0.000011
0.000004
0.000004
0.000004
0.000004
0.000003
0.000011
0.000011
0.000012
0.000011
0.000012
0.000011
0.000011
0.000012
0.000013
0.000012
0.000012
0.000013
0.000011
0.000009
0.000008
0.000009
0.000009
0.000011
0.000011
0.000010
0.000009
0.000010
0.000010
0.000009
0.000070
0.000003
0.000009
0.000008
0.000194
0.000003
0.000003
0.000003
0.000003
0.000003
0.000003
0.000003
0.000003
0.000003
0.000003
0.000003
0.000003
0.000000
0.000001
0.000003
0.000001
0.000003
0.000000
0.000000
0.000000
0.000000
0.000000
0.000000
0.000000
0.000000
0.000000
0.000000
0.000005
0.000006
0.000006
0.000005
0.000007
0.000007
0.000007
0.000007
0.000006
0.000006
0.000008
0.000008
0.000008
0.000008
0.000007
0.000007
0.000007
0.000007
0.000009
0.000009
0.000003
0.000004
0.000001
0.000001
0.000001
0.000001
0.000000
0.000000
0.000000
0.000000
0.000002
0.000008
0.000008
0.000008
0.000008
0.000008
0.000008
0.000008
0.000008
0.000008
0.000008
0.000008
0.000008
0.000008
0.000009
0.000009
0.000009
0.000010
0.000011
0.000144
0.000134
0.000230
0.000201
0.000242
0.000233
0.000273
0.000301
0.000339
0.000331
0.000267
0.000259
0.000351
0.000374
0.000380
0.000349
0.000270
0.000260
0.000373
0.000368
0.000398
0.000315
0.000432
0.000483
0.000459
0.000671
0.000754
0.000774
0.000002
0.000003
0.000003
0.000003
0.000003
0.000003
0.000003
0.000002
0.000498
0.000949
0.001026
0.000005
0.000005
0.000012
0.000012
0.000013
0.000013
0.000012
0.000013
0.000005
0.000292
0.000336
0.000342
0.000597
0.000623
0.000612
0.000599
0.000005
0.000004
0.000004
0.000004
0.000004
0.000013
0.000012
0.000013
0.000013
0.000012
0.000013
0.000013
0.000015
0.000015
0.000014
0.000014
0.000012
0.000014
0.000012
0.000010
0.000009
0.000010
0.000011
0.000012
0.000011
0.000011
0.000010
0.000011
0.000010
0.000565
0.000198
0.000153
0.000564
0.000374
0.000197
0.000003
0.000003
0.000003
0.000003
0.000003
0.000003
0.000003
0.000003
0.000003
0.000002
0.000001
0.000002
0.000001
0.000000
0.000000
0.000000
0.000000
0.000004
0.000005
0.000004
0.000006
0.000007
0.000006
0.000005
0.000008
0.000008
0.000008
0.000008
0.000007
0.000007
0.000007
0.000010
0.000010
0.000012
0.000011
0.000009
0.000009
0.000002
0.000000
0.000000
0.000000
0.000000
0.000000
0.000013
0.000014
0.000011
0.000012
0.000008
0.000008
0.000147
0.000143
0.000139
0.000130
0.000008
0.000008
0.000118
0.000215
0.000112
0.000105
0.000104
0.000009
0.000009
0.000009
0.000010
0.000010
0.000011
0.000023
0.000265
0.000297
0.000367
0.000365
0.000495
0.000498
0.000438
0.000528
0.000516
0.000478
0.000558
0.000751
0.000735
0.000703
0.001098
0.001176
0.000003
0.000003
0.000003
0.000003
0.000003
0.000493
0.000003
0.000941
0.001591
0.000005
0.000715
0.000013
0.000014
0.000014
0.000602
0.000604
0.000652
0.000683
0.000614
0.000634
0.000613
0.000005
0.000004
0.000004
0.000004
0.000004
0.000014
0.000014
0.000014
0.000014
0.000014
0.000015
0.000611
0.000610
0.000613
0.000621
0.000015
0.000015
0.000015
0.000013
0.000015
0.000013
0.000568
0.000011
0.000012
0.000571
0.000013
0.000012
0.000012
0.000011
0.000012
0.000580
0.000576
0.000397
0.000582
0.000410
0.000209
0.000003
0.000003
0.000003
0.000002
0.000002
0.000002
0.000003
0.000003
0.000003
0.000002
0.000002
0.000001
0.000002
0.000001
0.000000
0.000000
0.000000
0.000000
0.000018
0.000020
0.000016
0.000023
0.000003
0.000004
0.000006
0.000005
0.000008
0.000008
0.000007
0.000006
0.000011
0.000010
0.000015
0.000012
0.000014
0.000012
0.000010
0.000009
0.000000
0.000000
0.000000
0.000000
0.000000
0.000013
0.000015
0.000012
0.000013
0.000008
0.000008
0.000253
0.000308
0.000284
0.000311
0.000106
0.000115
0.000245
0.000196
0.000207
0.000181
0.000009
0.000009
0.000009
0.000010
0.000010
0.000011
0.000016
0.000019
0.000026
0.000030
0.000021
0.000024
0.000424
0.000512
0.000554
0.000764
0.000677
0.000770
0.000721
0.000780
0.000728
0.001176
0.001100
0.001592
0.001590
0.000003
0.000004
0.000004
0.000003
0.000790
0.000555
0.001442
0.001488
0.000701
0.000752
0.000728
0.000607
0.000609
0.000620
0.000621
0.000668
0.000639
0.000592
0.000437
0.000323
0.000422
0.000445
0.000466
0.000015
0.000015
0.000015
0.000015
0.000614
0.000622
0.000623
0.000626
0.000632
0.000613
0.000612
0.000609
0.000607
0.000015
0.000604
0.000014
0.000583
0.000012
0.000576
0.000583
0.000014
0.000014
0.000013
0.000013
0.000599
0.000595
0.000604
0.000630
0.000419
0.000281
0.000003
0.000003
0.000002
0.000002
0.000002
0.000003
0.000003
0.000003
0.000003
0.000002
0.000001
0.000001
0.000001
0.000000
0.000001
0.000000
0.000018
0.000021
0.000017
0.000030
0.000027
0.000024
0.000003
0.000005
0.000008
0.000007
0.000011
0.000015
0.000013
0.000011
0.000009
0.000000
0.000000
0.000000
0.000000
0.000014
0.000015
0.000012
0.000013
0.000133
0.000149
0.000422
0.000492
0.000376
0.000467
0.000219
0.000218
0.000336
0.000311
0.000134
0.000141
0.000111
0.000122
0.000105
0.000104
0.000181
0.000017
0.000019
0.000034
0.000039
0.000027
0.000031
0.000022
0.000025
0.000643
0.000782
0.001085
0.001081
0.001086
0.001585
0.001576
0.001477
0.001471
0.000713
0.000520
0.000529
0.000455
0.000654
0.001311
0.001384
0.000721
0.000698
0.000757
0.000633
0.000646
0.000679
0.000801
0.000850
0.000902
0.000956
0.001019
0.000615
0.000615
0.000616
0.000634
0.000650
0.000649
0.000627
0.000627
0.000621
0.000622
0.000617
0.000602
0.000617
0.000599
0.000598
0.000581
0.000593
0.000595
0.000591
0.000586
0.000614
0.000627
0.000648
0.000658
0.000369
0.000003
0.000002
0.000002
0.000002
0.000003
0.000003
0.000002
0.000003
0.000003
0.000002
0.000001
0.000001
0.000000
0.000001
0.000000
0.000052
0.000046
0.000040
0.000035
0.000019
0.000031
0.000025
0.000005
0.000008
0.000015
0.000011
0.000000
0.000000
0.000000
0.000000
0.000060
0.000069
0.000015
0.000016
0.000104
0.000108
0.000253
0.000289
0.000686
0.000515
0.000671
0.000377
0.000487
0.000229
0.000287
0.000180
0.000235
0.000208
0.000258
0.000018
0.000021
0.000036
0.000042
0.000048
0.000056
0.000029
0.000033
0.000024
0.000027
0.001039
0.001564
0.001529
0.001548
0.001467
0.001459
0.001360
0.001384
0.001197
0.001099
0.001266
0.000737
0.000793
0.000691
0.000731
0.000846
0.000897
0.001079
0.000949
0.001007
0.000640
0.000642
0.000661
0.000699
0.000653
0.000642
0.000643
0.000625
0.000619
0.000618
0.000606
0.000629
0.000613
0.000641
0.000651
0.000675
0.000690
0.000342
0.000267
0.000002
0.000003
0.000003
0.000002
0.000003
0.000002
0.000001
0.000002
0.000001
0.000001
0.000000
0.000053
0.000046
0.000069
0.000060
0.000041
0.000037
0.000078
0.000021
0.000030
0.000008
0.000015
0.000000
0.000000
0.000000
0.000000
0.000091
0.000064
0.000080
0.000092
0.000075
0.000120
0.000121
0.000204
0.000203
0.000411
0.000475
0.001021
0.000722
0.000615
0.000365
0.000488
0.000286
0.000374
0.000307
0.000115
0.000110
0.000205
0.000038
0.000044
0.000051
0.000060
0.000031
0.000036
0.000113
0.000119
0.001505
0.001478
0.001450
0.001426
0.001438
0.001357
0.001372
0.001264
0.001178
0.000838
0.000795
0.000749
0.000936
0.000893
0.001106
0.001052
0.000995
0.000701
0.000774
0.000694
0.000680
0.000661
0.000704
0.000003
0.000705
0.000703
0.000719
0.000359
0.000002
0.000003
0.000003
0.000003
0.000002
0.000002
0.000002
0.000002
0.000003
0.000001
0.000004
0.000000
0.000054
0.000068
0.000048
0.000038
0.000104
0.000087
0.000023
0.000033
0.000011
0.000000
0.000000
0.000000
0.000120
0.000137
0.000158
0.000106
0.000070
0.000067
0.000086
0.000100
0.000081
0.000257
0.000340
0.000673
0.001001
0.000526
0.000654
0.000468
0.000210
0.000176
0.000322
0.000042
0.000049
0.000057
0.000142
0.000132
0.000217
0.000211
0.001444
0.001390
0.001363
0.001344
0.001341
0.001363
0.001255
0.001174
0.000859
0.000824
0.000948
0.000911
0.001070
0.001004
0.000782
0.000842
0.000767
0.000731
0.000754
0.000005
0.000004
0.000003
0.000003
0.000753
0.000748
0.000332
0.000002
0.000003
0.000003
0.000002
0.000002
0.000002
0.000003
0.000008
0.000007
0.000000
0.000176
0.000064
0.000046
0.000116
0.000084
0.000101
0.000027
0.000008
0.000000
0.000001
0.000001
0.000152
0.000201
0.000123
0.000140
0.000161
0.000183
0.000115
0.000077
0.000142
0.000147
0.000094
0.000109
0.000090
0.000436
0.000516
0.000988
0.000715
0.000671
0.000320
0.000477
0.000147
0.000145
0.000231
0.000267
0.000330
0.001404
0.001326
0.001288
0.001285
0.001273
0.001245
0.001155
0.000895
0.000954
0.001063
0.000999
0.000891
0.000849
0.000814
0.000795
0.000005
0.000004
0.000003
0.000003
0.000782
0.000770
0.000341
0.000003
0.000003
0.000003
0.000003
0.000230
0.000013
0.000016
0.000149
0.000287
0.000000
0.000000
0.000000
0.000189
0.000218
0.000069
0.000047
0.000123
0.000097
0.000001
0.000001
0.000002
0.000149
0.000180
0.000248
0.000209
0.000233
0.000133
0.000152
0.000177
0.000201
0.000217
0.000126
0.000159
0.000226
0.000214
0.000105
0.000121
0.000177
0.000678
0.000969
0.000500
0.000649
0.000269
0.000328
0.000456
0.001356
0.001241
0.001220
0.001196
0.001172
0.001121
0.000943
0.001040
0.000988
0.000904
0.000831
0.000869
0.000811
0.000003
0.000004
0.000003
0.000788
0.000775
0.000003
0.000003
0.000305
0.000438
0.000378
0.000042
0.000052
0.000214
0.000320
0.000603
0.000456
0.000000
0.000066
0.000004
0.000009
0.000015
0.000000
0.000224
0.000067
0.000118
0.000002
0.000003
0.000167
0.000215
0.000265
0.000265
0.000288
0.000230
0.000261
0.000146
0.000169
0.000195
0.000224
0.000323
0.000141
0.000250
0.000309
0.000201
0.000222
0.000256
0.000937
0.000685
0.000455
0.000615
0.001299
0.001195
0.001146
0.001120
0.001113
0.001069
0.000945
0.000995
0.000909
0.000842
0.000874
0.000808
0.000407
0.000336
0.000334
0.000772
0.000757
0.000718
0.000577
0.000599
0.000146
0.000334
0.000444
0.000566
0.000547
0.000178
0.000055
0.000133
0.000005
0.000009
0.000019
0.000040
0.000273
0.000108
0.000003
0.000197
0.000249
0.000320
0.000299
0.000315
0.000320
0.000295
0.000327
0.000258
0.000295
0.000163
0.000249
0.000188
0.000217
0.000463
0.000242
0.000308
0.000373
0.000321
0.000904
0.000661
0.001230
0.001136
0.001063
0.001052
0.001002
0.000945
0.000895
0.000834
0.000787
0.000672
0.000631
0.000731
0.000695
0.000587
0.000617
0.000288
0.000392
0.000479
0.000571
0.000540
0.000256
0.000127
0.000007
0.000015
0.000037
0.000295
0.000165
0.000263
0.000355
0.000345
0.000357
0.000339
0.000358
0.000358
0.000337
0.000385
0.000286
0.000327
0.000268
0.000310
0.000295
0.000282
0.000506
0.000612
0.000349
0.000414
0.000473
0.000873
0.001142
0.001073
0.000979
0.000999
0.000921
0.000842
0.000776
0.000659
0.000709
0.000606
0.000636
0.000594
0.000414
0.000546
0.000383
0.000308
0.000227
0.000254
0.000347
0.000297
0.000376
0.000390
0.000420
0.000385
0.000390
0.000393
0.000438
0.000386
0.000436
0.000438
0.000373
0.000425
0.000344
0.000351
0.000377
0.000373
0.000362
0.000354
0.000668
0.000484
0.000551
0.000421
0.000867
0.000972
0.000995
0.001010
0.000942
0.000914
0.000938
0.000862
0.000811
0.000772
0.000726
0.000675
0.000634
0.000620
0.000599
0.000535
0.000451
0.000416
0.000419
0.000489
0.000445
0.000480
0.000459
0.000490
0.000549
0.000497
0.000562
0.000483
0.000407
0.000414
0.000429
0.000425
0.000498
0.000728
0.000530
0.001033
0.000978
0.000940
0.000881
0.000896
0.000823
0.000774
0.000721
0.000671
0.000676
0.000777
0.000639
0.000556
0.000571
0.000590
0.000499
0.000544
0.000510
0.000538
0.000588
0.000634
0.000709
0.000547
0.000619
0.000434
0.000398
0.000462
0.000442
0.000575
0.000738
0.001002
0.000934
0.000888
0.000837
0.000854
0.000827
0.000742
0.000781
0.000715
0.000741
0.000828
0.000693
0.000693
0.000672
0.000621
0.000649
0.000643
0.000750
0.000703
0.000726
0.000499
0.000593
0.000484
0.000508
0.000585
0.000768
0.000934
0.000887
0.000804
0.000836
0.000812
0.000782
0.000747
0.000765
0.000746
0.000781
0.000838
0.000830
0.000814
0.000776
0.000795
0.000751
0.000740
0.000732
0.000603
0.000606
0.000624
0.000721
0.000730
0.000843
0.000792
0.000806
0.000774
0.000758
0.000767
0.000794
0.000791
0.000781
0.000767
0.000751
0.000743
0.000743
0.000752
0.000766
0.000790
0.000795
0.000784
0.000769
0.000765
0.000774
0.000771
0.000762
0.000752
0.000750
0.000759
0.000774
0.000774
0.000765
0.000764
0.000760
0.000756
0.000764
0.000761
